 vasp.6.4.1 05Apr23 (build Nov 17 2023 12:34:08) complex                        
  
 executed on             LinuxIFC date 2025.06.18  21:08:46
 running    4 mpi-ranks, with    1 threads/rank, on    1 nodes
 distrk:  each k-point on    4 cores,    1 groups
 distr:  one band on NCORE=   2 cores,    2 groups


--------------------------------------------------------------------------------------------------------


 INCAR:
   SYSTEM = SCF
   ICHARG = 11
   NEDOS = 2001
   EMIN = -12
   EMAX = 8
   LORBIT = 10
   PREC = Accurate
   LREAL = .FALSE.
   IBRION = -1
   ISIF = 2
   ISMEAR = 0
   SIGMA = 0.05
   NSW = 0
   EDIFF = 1E-7
   EDIFFG = -1E-3
   ENCUT = 500
   LWAVE = .FALSE.
   LCHARG = .TRUE.
   NPAR = 2
   LPLANE = .TRUE.

 POTCAR:    PAW_PBE Mo_sv 02Feb2006               
 POTCAR:    PAW_PBE S 06Sep2000                   
 POTCAR:    PAW_PBE Mo_sv 02Feb2006               
   SHA256 =  2731df97e41766cc617548c5a8267718fdef1f509ac6bafa01e745abea2bdfaa Mo_sv/POTCAR          
   COPYR  = (c) Copyright 02Feb2006 Georg Kresse                                                    
   COPYR  = This file is part of the software VASP. Any use, copying, and all other rights are regul
   COPYR  = If you do not have a valid VASP license, you may not use, copy or distribute this file. 
   VRHFIN =Mo: 4p5s4d                                                                               
   LEXCH  = PE                                                                                      
   EATOM  =  1862.2866 eV,  136.8742 Ry                                                             
                                                                                                    
   TITEL  = PAW_PBE Mo_sv 02Feb2006                                                                 
   LULTRA =        F    use ultrasoft PP ?                                                          
   IUNSCR =        1    unscreen: 0-lin 1-nonlin 2-no                                               
   RPACOR =    2.200    partial core radius                                                         
   POMASS =   95.940; ZVAL   =   14.000    mass and valenz                                          
   RCORE  =    2.500    outmost cutoff radius                                                       
   RWIGS  =    2.750; RWIGS  =    1.455    wigner-seitz radius (au A)                               
   ENMAX  =  242.676; ENMIN  =  182.007 eV                                                          
   ICORE  =        3    local potential                                                             
   LCOR   =        T    correct aug charges                                                         
   LPAW   =        T    paw PP                                                                      
   EAUG   =  446.014                                                                                
   DEXC   =    0.000                                                                                
   RMAX   =    2.563    core radius for proj-oper                                                   
   RAUG   =    1.300    factor for augmentation sphere                                              
   RDEP   =    2.641    radius for radial grids                                                     
   RDEPT  =    2.031    core radius for aug-charge                                                  
                                                                                                    
   Atomic configuration                                                                             
   11 entries                                                                                       
     n  l   j            E        occ.                                                              
     1  0  0.50    -19819.0341   2.0000                                                             
     2  0  0.50     -2799.0127   2.0000                                                             
     2  1  1.50     -2502.0276   6.0000                                                             
     3  0  0.50      -476.4449   2.0000                                                             
     3  1  1.50      -379.1496   6.0000                                                             
     3  2  2.50      -220.9367  10.0000                                                             
     4  0  0.50       -64.3378   2.0000                                                             
     5  0  0.50        -4.0862   1.0000                                                             
     4  1  1.50       -38.4773   6.0000                                                             
     4  2  2.50        -3.7535   5.0000                                                             
     4  3  2.50        -1.3606   0.0000                                                             
   Description                                                                                      
     l       E           TYP  RCUT    TYP  RCUT                                                     
     0    -64.3377829     23  2.100                                                                 
     0     -4.0861640     23  2.400                                                                 
     1    -38.4772993     23  2.100                                                                 
     1     13.6058260     23  2.100                                                                 
     2     -3.7534941     23  2.400                                                                 
     2     -5.1140767     23  2.400                                                                 
     3     -4.0817478     23  2.500                                                                 
  local pseudopotential read in
  partial core-charges read in
  partial kinetic energy density read in
  atomic valenz-charges read in
  non local Contribution for L=           0  read in
    real space projection operators read in
  non local Contribution for L=           0  read in
    real space projection operators read in
  non local Contribution for L=           1  read in
    real space projection operators read in
  non local Contribution for L=           1  read in
    real space projection operators read in
  non local Contribution for L=           2  read in
    real space projection operators read in
  non local Contribution for L=           2  read in
    real space projection operators read in
    PAW grid and wavefunctions read in
 
   number of l-projection  operators is LMAX  =           6
   number of lm-projection operators is LMMAX =          18
 
 POTCAR:    PAW_PBE S 06Sep2000                   
   SHA256 =  0fc7481fb0695f01bdc6462160264c5c84044ae9ec85a907d398b887a2bc3132 S/POTCAR              
   COPYR  = (c) Copyright 06Sep2000 Georg Kresse                                                    
   COPYR  = This file is part of the software VASP. Any use, copying, and all other rights are regul
   COPYR  = If you do not have a valid VASP license, you may not use, copy or distribute this file. 
   VRHFIN =S : s2p4                                                                                 
   LEXCH  = PE                                                                                      
   EATOM  =   276.8230 eV,   20.3459 Ry                                                             
                                                                                                    
   TITEL  = PAW_PBE S 06Sep2000                                                                     
   LULTRA =        F    use ultrasoft PP ?                                                          
   IUNSCR =        1    unscreen: 0-lin 1-nonlin 2-no                                               
   RPACOR =    1.500    partial core radius                                                         
   POMASS =   32.066; ZVAL   =    6.000    mass and valenz                                          
   RCORE  =    1.900    outmost cutoff radius                                                       
   RWIGS  =    2.200; RWIGS  =    1.164    wigner-seitz radius (au A)                               
   ENMAX  =  258.689; ENMIN  =  194.016 eV                                                          
   ICORE  =        2    local potential                                                             
   LCOR   =        T    correct aug charges                                                         
   LPAW   =        T    paw PP                                                                      
   EAUG   =  335.092                                                                                
   DEXC   =    0.000                                                                                
   RMAX   =    1.942    core radius for proj-oper                                                   
   RAUG   =    1.300    factor for augmentation sphere                                              
   RDEP   =    1.954    radius for radial grids                                                     
   RDEPT  =    1.744    core radius for aug-charge                                                  
                                                                                                    
   Atomic configuration                                                                             
    6 entries                                                                                       
     n  l   j            E        occ.                                                              
     1  0  0.50     -2405.8406   2.0000                                                             
     2  0  0.50      -211.7007   2.0000                                                             
     2  1  1.50      -156.4958   6.0000                                                             
     3  0  0.50       -17.2562   2.0000                                                             
     3  1  0.50        -7.0085   4.0000                                                             
     3  2  1.50        -6.8029   0.0000                                                             
   Description                                                                                      
     l       E           TYP  RCUT    TYP  RCUT                                                     
     0    -17.2561641     23  1.900                                                                 
     0    -15.8743224     23  1.900                                                                 
     1     -7.0085400     23  1.900                                                                 
     1     -2.7779785     23  1.900                                                                 
     2     -6.8029130     23  1.900                                                                 
  local pseudopotential read in
  partial core-charges read in
  partial kinetic energy density read in
  atomic valenz-charges read in
  non local Contribution for L=           0  read in
    real space projection operators read in
  non local Contribution for L=           0  read in
    real space projection operators read in
  non local Contribution for L=           1  read in
    real space projection operators read in
  non local Contribution for L=           1  read in
    real space projection operators read in
    PAW grid and wavefunctions read in
 
   number of l-projection  operators is LMAX  =           4
   number of lm-projection operators is LMMAX =           8
 
  PAW_PBE Mo_sv 02Feb2006               :
 energy of atom  1       EATOM=-1862.2866
 kinetic energy error for atom=    0.0074 (will be added to EATOM!!)
  PAW_PBE S 06Sep2000                   :
 energy of atom  2       EATOM= -276.8230
 kinetic energy error for atom=    0.0020 (will be added to EATOM!!)
 
 
 POSCAR: MoS2
  positions in direct lattice
  velocities in cartesian coordinates
  No initial velocities read in
 exchange correlation table for  LEXCH =        8
   RHO(1)=    0.500       N(1)  =     2000
   RHO(2)=  100.500       N(2)  =     4000

 VTST: version 4.1, (05/19/21)

 CHAIN: initializing optimizer
 
 OPT: Using VASP Dynamics algorithm
 CHAIN: Read ICHAIN            0
 
 POSCAR: MoS2
  positions in direct lattice
  velocities in cartesian coordinates
  No initial velocities read in
 


--------------------------------------------------------------------------------------------------------


 ion  position               nearest neighbor table
   1  0.000  0.000  0.500-   2 2.39   3 2.39   2 2.39   3 2.39   2 2.39   3 2.39
   2  0.667  0.333  0.586-   1 2.39   1 2.39   1 2.39
   3  0.667  0.333  0.414-   1 2.39   1 2.39   1 2.39
 
  LATTYP: Found a hexagonal cell.
 ALAT       =     3.1407492831
 C/A-ratio  =     5.7715887861
  
  Lattice vectors:
  
 A1 = (   3.1407492831,   0.0000000000,   0.0000000000)
 A2 = (  -1.5703746415,   2.7199686661,   0.0000000000)
 A3 = (   0.0000000000,   0.0000000000,  18.1271133423)


Analysis of symmetry for initial positions (statically):
=====================================================================
 Subroutine PRICEL returns:
 Original cell was already a primitive cell.
 

 Routine SETGRP: Setting up the symmetry group for a 
 hexagonal supercell.


 Subroutine GETGRP returns: Found 12 space group operations
 (whereof 12 operations were pure point group operations)
 out of a pool of 24 trial point group operations.


The static configuration has the point symmetry D_3h.


Analysis of symmetry for dynamics (positions and initial velocities):
=====================================================================
 Subroutine PRICEL returns:
 Original cell was already a primitive cell.
 

 Routine SETGRP: Setting up the symmetry group for a 
 hexagonal supercell.


 Subroutine GETGRP returns: Found 12 space group operations
 (whereof 12 operations were pure point group operations)
 out of a pool of 24 trial point group operations.


The dynamic configuration has the point symmetry D_3h.


 Subroutine INISYM returns: Found 12 space group operations
 (whereof 12 operations are pure point group operations),
 and found     1 'primitive' translations


----------------------------------------------------------------------------------------

                                     Primitive cell                                     

  volume of cell :     154.8552

  direct lattice vectors                    reciprocal lattice vectors
     3.140749283  0.000000000  0.000000000     0.318395360  0.183825647  0.000000000
    -1.570374642  2.719968666  0.000000000     0.000000000  0.367651294  0.000000000
     0.000000000  0.000000000 18.127113342     0.000000000  0.000000000  0.055165982

  length of vectors
     3.140749283  3.140749283 18.127113342     0.367651294  0.367651294  0.055165982

  position of ions in fractional coordinates (direct lattice)
     0.000000000  0.000000000  0.500000000
     0.666666687  0.333333343  0.585965235
     0.666666687  0.333333343  0.414034765

  ion indices of the primitive-cell ions
   primitive index   ion index
                 1           1
                 2           2
                 3           3

----------------------------------------------------------------------------------------

 
 
 KPOINTS: K-Spacing Value to Generate K-Mesh: 0.04

Automatic generation of k-mesh.
 Grid dimensions read from file:
 generate k-points for:   12   12    1

 Generating k-lattice:

  Cartesian coordinates                     Fractional coordinates (reciprocal lattice)
     0.026532947  0.015318804  0.000000000     0.083333333 -0.000000000  0.000000000
     0.000000000  0.030637608  0.000000000     0.000000000  0.083333333  0.000000000
     0.000000000  0.000000000  0.055165982     0.000000000  0.000000000  1.000000000

  Length of vectors
     0.030637608  0.030637608  0.055165982

  Shift w.r.t. Gamma in fractional coordinates (k-lattice)
     0.000000000  0.000000000  0.000000000

 
 Subroutine IBZKPT returns following result:
 ===========================================
 
 Found     19 irreducible k-points:
 
 Following reciprocal coordinates:
            Coordinates               Weight
  0.000000  0.000000  0.000000      1.000000
  0.083333 -0.000000  0.000000      6.000000
  0.166667  0.000000  0.000000      6.000000
  0.250000 -0.000000  0.000000      6.000000
  0.333333  0.000000  0.000000      6.000000
  0.416667 -0.000000  0.000000      6.000000
  0.500000 -0.000000  0.000000      3.000000
  0.083333  0.083333  0.000000      6.000000
  0.166667  0.083333  0.000000     12.000000
  0.250000  0.083333  0.000000     12.000000
  0.333333  0.083333  0.000000     12.000000
  0.416667  0.083333  0.000000     12.000000
  0.166667  0.166667  0.000000      6.000000
  0.250000  0.166667  0.000000     12.000000
  0.333333  0.166667  0.000000     12.000000
  0.416667  0.166667  0.000000      6.000000
  0.250000  0.250000  0.000000      6.000000
  0.333333  0.250000  0.000000     12.000000
  0.333333  0.333333  0.000000      2.000000
 
 Following cartesian coordinates:
            Coordinates               Weight
  0.000000  0.000000  0.000000      1.000000
  0.026533  0.015319  0.000000      6.000000
  0.053066  0.030638  0.000000      6.000000
  0.079599  0.045956  0.000000      6.000000
  0.106132  0.061275  0.000000      6.000000
  0.132665  0.076594  0.000000      6.000000
  0.159198  0.091913  0.000000      3.000000
  0.026533  0.045956  0.000000      6.000000
  0.053066  0.061275  0.000000     12.000000
  0.079599  0.076594  0.000000     12.000000
  0.106132  0.091913  0.000000     12.000000
  0.132665  0.107232  0.000000     12.000000
  0.053066  0.091913  0.000000      6.000000
  0.079599  0.107232  0.000000     12.000000
  0.106132  0.122550  0.000000     12.000000
  0.132665  0.137869  0.000000      6.000000
  0.079599  0.137869  0.000000      6.000000
  0.106132  0.153188  0.000000     12.000000
  0.106132  0.183826  0.000000      2.000000
 


--------------------------------------------------------------------------------------------------------




 Dimension of arrays:
   k-points           NKPTS =     19   k-points in BZ     NKDIM =     19   number of bands    NBANDS=     18
   number of dos      NEDOS =   2001   number of ions     NIONS =      3
   non local maximal  LDIM  =      6   non local SUM 2l+1 LMDIM =     18
   total plane-waves  NPLWV =  80640
   max r-space proj   IRMAX =      1   max aug-charges    IRDMAX=  22970
   dimension x,y,z NGX =    24 NGY =   24 NGZ =  140
   dimension x,y,z NGXF=    48 NGYF=   48 NGZF=  280
   support grid    NGXF=    48 NGYF=   48 NGZF=  280
   ions per type =               1   2
   NGX,Y,Z   is equivalent  to a cutoff of  12.70, 12.70, 12.84 a.u.
   NGXF,Y,Z  is equivalent  to a cutoff of  25.41, 25.41, 25.68 a.u.

 SYSTEM =  SCF                                     
 POSCAR =  MoS2                                    

 Startparameter for this run:
   NWRITE =      2    write-flag & timer
   PREC   = accura    normal or accurate (medium, high low for compatibility)
   ISTART =      0    job   : 0-new  1-cont  2-samecut
   ICHARG =     11    charge: 1-file 2-atom 10-const
   ISPIN  =      1    spin polarized calculation?
   LNONCOLLINEAR =      F non collinear calculations
   LSORBIT =      F    spin-orbit coupling
   INIWAV =      1    electr: 0-lowe 1-rand  2-diag
   LASPH  =      F    aspherical Exc in radial PAW
 Electronic Relaxation 1
   ENCUT  =  500.0 eV  36.75 Ry    6.06 a.u.   5.73  5.73 33.05*2*pi/ulx,y,z
   ENINI  =  500.0     initial cutoff
   ENAUG  =  446.0 eV  augmentation charge cutoff
   NELM   =     60;   NELMIN=  2; NELMDL=  0     # of ELM steps 
   EDIFF  = 0.1E-06   stopping-criterion for ELM
   LREAL  =      F    real-space projection
   NLSPLINE    = F    spline interpolate recip. space projectors
   LCOMPAT=      F    compatible to vasp.4.4
   GGA_COMPAT  = T    GGA compatible to vasp.4.4-vasp.4.6
   LMAXPAW     = -100 max onsite density
   LMAXMIX     =    2 max onsite mixed and CHGCAR
   VOSKOWN=      0    Vosko Wilk Nusair interpolation
   ROPT   =    0.00000   0.00000
 Ionic relaxation
   EDIFFG = -.1E-02   stopping-criterion for IOM
   NSW    =      0    number of steps for IOM
   NBLOCK =      1;   KBLOCK =      1    inner block; outer block 
   IBRION =     -1    ionic relax: 0-MD 1-quasi-New 2-CG
   NFREE  =      0    steps in history (QN), initial steepest desc. (CG)
   ISIF   =      2    stress and relaxation
   IWAVPR =     10    prediction:  0-non 1-charg 2-wave 3-comb
   ISYM   =      2    0-nonsym 1-usesym 2-fastsym
   LCORR  =      T    Harris-Foulkes like correction to forces

   POTIM  = 0.5000    time-step for ionic-motion
   TEIN   =    0.0    initial temperature
   TEBEG  =    0.0;   TEEND  =   0.0 temperature during run
   SMASS  =  -3.00    Nose mass-parameter (am)
   estimated Nose-frequenzy (Omega)   =  0.10E-29 period in steps = 0.13E+47 mass=  -0.225E-27a.u.
   SCALEE = 1.0000    scale energy and forces
   NPACO  =    256;   APACO  = 10.0  distance and # of slots for P.C.
   PSTRESS=    0.0 pullay stress

  Mass of Ions in am
   POMASS =  95.94 32.07
  Ionic Valenz
   ZVAL   =  14.00  6.00
  Atomic Wigner-Seitz radii
   RWIGS  =  -1.00 -1.00
  virtual crystal weights 
   VCA    =   1.00  1.00
   NELECT =      26.0000    total number of electrons
   NUPDOWN=      -1.0000    fix difference up-down

 DOS related values:
   EMIN   = -12.00;   EMAX   =  8.00  energy-range for DOS
   EFERMI =   0.00;   METHOD = LEGACY      
   ISMEAR =     0;   SIGMA  =   0.05  broadening in eV -4-tet -1-fermi 0-gaus

 Electronic relaxation 2 (details)
   IALGO  =     38    algorithm
   LDIAG  =      T    sub-space diagonalisation (order eigenvalues)
   LSUBROT=      F    optimize rotation matrix (better conditioning)
   TURBO    =      0    0=normal 1=particle mesh
   IRESTART =      0    0=no restart 2=restart with 2 vectors
   NREBOOT  =      0    no. of reboots
   NMIN     =      0    reboot dimension
   EREF     =   0.00    reference energy to select bands
   IMIX   =      4    mixing-type and parameters
     AMIX     =   0.40;   BMIX     =  1.00
     AMIX_MAG =   1.60;   BMIX_MAG =  1.00
     AMIN     =   0.10
     WC   =   100.;   INIMIX=   1;  MIXPRE=   1;  MAXMIX= -45

 Intra band minimization:
   WEIMIN = 0.0000     energy-eigenvalue tresh-hold
   EBREAK =  0.14E-08  absolut break condition
   DEPER  =   0.30     relativ break condition  

   TIME   =   0.40     timestep for ELM

  volume/ion in A,a.u.               =      51.62       348.34
  Fermi-wavevector in a.u.,A,eV,Ry     =   0.903145  1.706696 11.097869  0.815670
  Thomas-Fermi vector in A             =   2.026434
 
 Write flags
   LWAVE        =      F    write WAVECAR
   LDOWNSAMPLE  =      F    k-point downsampling of WAVECAR
   LCHARG       =      T    write CHGCAR
   LVTOT        =      F    write LOCPOT, total local potential
   LVHAR        =      F    write LOCPOT, Hartree potential only
   LELF         =      F    write electronic localiz. function (ELF)
   LORBIT       =     10    0 simple, 1 ext, 2 COOP (PROOUT), +10 PAW based schemes


 Dipole corrections
   LMONO  =      F    monopole corrections only (constant potential shift)
   LDIPOL =      F    correct potential (dipole corrections)
   IDIPOL =      0    1-x, 2-y, 3-z, 4-all directions 
   EPSILON=  1.0000000 bulk dielectric constant

 Exchange correlation treatment:
   GGA     =    --    GGA type
   LEXCH   =     8    internal setting for exchange type
   LIBXC   =     F    Libxc                    
   VOSKOWN =     0    Vosko Wilk Nusair interpolation
   LHFCALC =     F    Hartree Fock is set to
   LHFONE  =     F    Hartree Fock one center treatment
   AEXX    =    0.0000 exact exchange contribution

 Linear response parameters
   LEPSILON=     F    determine dielectric tensor
   LRPA    =     F    only Hartree local field effects (RPA)
   LNABLA  =     F    use nabla operator in PAW spheres
   LVEL    =     F    velocity operator in full k-point grid
   CSHIFT  =0.1000    complex shift for real part using Kramers Kronig
   OMEGAMAX=  -1.0    maximum frequency
   DEG_THRESHOLD= 0.2000000E-02 threshold for treating states as degnerate
   RTIME   =   -0.100 relaxation time in fs
  (WPLASMAI=    0.000 imaginary part of plasma frequency in eV, 0.658/RTIME)
   DFIELD  = 0.0000000 0.0000000 0.0000000 field for delta impulse in time
 
  Optional k-point grid parameters
   LKPOINTS_OPT  =     F    use optional k-point grid
   KPOINTS_OPT_MODE=     1    mode for optional k-point grid
 
 Orbital magnetization related:
   ORBITALMAG=     F  switch on orbital magnetization
   LCHIMAG   =     F  perturbation theory with respect to B field
   DQ        =  0.001000  dq finite difference perturbation B field
   LLRAUG    =     F  two centre corrections for induced B field
   LBONE     =     F  B-component reconstruction in AE one-centre
   LVGVCALC  =     T  calculate vGv susceptibility
   LVGVAPPL  =     F  apply vGv susceptibility instead of pGv for G=0

 Random number generation:
   RANDOM_GENERATOR = DEFAULT
   PCG_SEED         = not used


--------------------------------------------------------------------------------------------------------


 Static calculation
 charge density and potential remain constant during run
 non-spin polarized calculation
 Variant of blocked Davidson
 Davidson routine will perform the subspace rotation
 perform sub-space diagonalisation
    after iterative eigenvector-optimisation
 no mixing
 using additional bands            5
 reciprocal scheme for non local part
 use partial core corrections
 calculate Harris-corrections to forces 
   (improved forces if not selfconsistent)
 use gradient corrections 
 WARNING: stress and forces are not correct
  (second derivative of E(xc) not defined)
 use of overlap-Matrix (Vanderbilt PP)
 Gauss-broadening in eV      SIGMA  =   0.05


--------------------------------------------------------------------------------------------------------


  energy-cutoff  :      500.00
  volume of cell :      154.86
      direct lattice vectors                 reciprocal lattice vectors
     3.140749283  0.000000000  0.000000000     0.318395360  0.183825647  0.000000000
    -1.570374642  2.719968666  0.000000000     0.000000000  0.367651294  0.000000000
     0.000000000  0.000000000 18.127113342     0.000000000  0.000000000  0.055165982

  length of vectors
     3.140749283  3.140749283 18.127113342     0.367651294  0.367651294  0.055165982


 
 k-points in units of 2pi/SCALE and weight: K-Spacing Value to Generate K-Mesh: 0.04
   0.00000000  0.00000000  0.00000000       0.007
   0.02653295  0.01531880  0.00000000       0.042
   0.05306589  0.03063761  0.00000000       0.042
   0.07959884  0.04595641  0.00000000       0.042
   0.10613179  0.06127522  0.00000000       0.042
   0.13266473  0.07659402  0.00000000       0.042
   0.15919768  0.09191282  0.00000000       0.021
   0.02653295  0.04595641  0.00000000       0.042
   0.05306589  0.06127522  0.00000000       0.083
   0.07959884  0.07659402  0.00000000       0.083
   0.10613179  0.09191282  0.00000000       0.083
   0.13266473  0.10723163  0.00000000       0.083
   0.05306589  0.09191282  0.00000000       0.042
   0.07959884  0.10723163  0.00000000       0.083
   0.10613179  0.12255043  0.00000000       0.083
   0.13266473  0.13786924  0.00000000       0.042
   0.07959884  0.13786924  0.00000000       0.042
   0.10613179  0.15318804  0.00000000       0.083
   0.10613179  0.18382565  0.00000000       0.014
 
 k-points in reciprocal lattice and weights: K-Spacing Value to Generate K-Mesh: 0.04
   0.00000000  0.00000000  0.00000000       0.007
   0.08333333 -0.00000000  0.00000000       0.042
   0.16666667  0.00000000  0.00000000       0.042
   0.25000000 -0.00000000  0.00000000       0.042
   0.33333333  0.00000000  0.00000000       0.042
   0.41666667 -0.00000000  0.00000000       0.042
   0.50000000 -0.00000000  0.00000000       0.021
   0.08333333  0.08333333  0.00000000       0.042
   0.16666667  0.08333333  0.00000000       0.083
   0.25000000  0.08333333  0.00000000       0.083
   0.33333333  0.08333333  0.00000000       0.083
   0.41666667  0.08333333  0.00000000       0.083
   0.16666667  0.16666667  0.00000000       0.042
   0.25000000  0.16666667  0.00000000       0.083
   0.33333333  0.16666667  0.00000000       0.083
   0.41666667  0.16666667  0.00000000       0.042
   0.25000000  0.25000000  0.00000000       0.042
   0.33333333  0.25000000  0.00000000       0.083
   0.33333333  0.33333333  0.00000000       0.014
 
 position of ions in fractional coordinates (direct lattice) 
   0.00000000  0.00000000  0.50000000
   0.66666669  0.33333334  0.58596524
   0.66666669  0.33333334  0.41403476
 
 position of ions in cartesian coordinates  (Angst):
   0.00000000  0.00000000  9.06355667
   1.57037469  0.90665625 10.62185823
   1.57037469  0.90665625  7.50525511
 


--------------------------------------------------------------------------------------------------------


 k-point   1 :   0.0000 0.0000 0.0000  plane waves:    3895
 k-point   2 :   0.0833-0.0000 0.0000  plane waves:    3934
 k-point   3 :   0.1667 0.0000 0.0000  plane waves:    3928
 k-point   4 :   0.2500-0.0000 0.0000  plane waves:    3930
 k-point   5 :   0.3333 0.0000 0.0000  plane waves:    3944
 k-point   6 :   0.4167-0.0000 0.0000  plane waves:    3942
 k-point   7 :   0.5000-0.0000 0.0000  plane waves:    3944
 k-point   8 :   0.0833 0.0833 0.0000  plane waves:    3943
 k-point   9 :   0.1667 0.0833 0.0000  plane waves:    3939
 k-point  10 :   0.2500 0.0833 0.0000  plane waves:    3931
 k-point  11 :   0.3333 0.0833 0.0000  plane waves:    3928
 k-point  12 :   0.4167 0.0833 0.0000  plane waves:    3933
 k-point  13 :   0.1667 0.1667 0.0000  plane waves:    3942
 k-point  14 :   0.2500 0.1667 0.0000  plane waves:    3926
 k-point  15 :   0.3333 0.1667 0.0000  plane waves:    3928
 k-point  16 :   0.4167 0.1667 0.0000  plane waves:    3926
 k-point  17 :   0.2500 0.2500 0.0000  plane waves:    3918
 k-point  18 :   0.3333 0.2500 0.0000  plane waves:    3913
 k-point  19 :   0.3333 0.3333 0.0000  plane waves:    3930

 maximum and minimum number of plane-waves per node :      1980     1935

 maximum number of plane-waves:      3944
 maximum index in each direction: 
   IXMAX=    5   IYMAX=    5   IZMAX=   33
   IXMIN=   -6   IYMIN=   -6   IZMIN=  -33


 parallel 3D FFT for wavefunctions:
    minimum data exchange during FFTs selected (reduces bandwidth)
 parallel 3D FFT for charge:
    minimum data exchange during FFTs selected (reduces bandwidth)


 total amount of memory used by VASP MPI-rank0    63766. kBytes
=======================================================================

   base      :      30000. kBytes
   nonl-proj :      10929. kBytes
   fftplans  :       6623. kBytes
   grid      :      10695. kBytes
   one-center:         31. kBytes
   wavefun   :       5488. kBytes
 
     INWAV:  cpu time      0.0000: real time      0.0000
 initial charge density was supplied:
 number of electron      26.0000000 magnetization 
 keeping initial charge density in first step


--------------------------------------------------------------------------------------------------------


 Maximum index for augmentation-charges         5521 (set IRDMAX)


--------------------------------------------------------------------------------------------------------


 First call to EWALD:  gamma=   0.330
 Maximum number of real-space cells 5x 5x 1
 Maximum number of reciprocal cells 2x 2x 8

    FEWALD:  cpu time      0.0012: real time      0.0012


--------------------------------------- Ionic step        1  -------------------------------------------




--------------------------------------- Iteration      1(   1)  ---------------------------------------


    POTLOK:  cpu time      0.0866: real time      0.0885
    SETDIJ:  cpu time      0.0048: real time      0.0048
     EDDAV:  cpu time      1.2017: real time      1.2113
       DOS:  cpu time      0.0034: real time      0.0034
    --------------------------------------------
      LOOP:  cpu time      1.2965: real time      1.3080

 eigenvalue-minimisations  :   924
 total energy-change (2. order) : 0.1564009E+03  (-0.1396749E+04)
 number of electron      26.0000000 magnetization 
 augmentation part       26.0000000 magnetization 

 Free energy of the ion-electron system (eV)
  ---------------------------------------------------
  alpha Z        PSCENC =        30.54893193
  Ewald energy   TEWEN  =      4650.11704384
  -Hartree energ DENC   =     -6768.90954666
  -exchange      EXHF   =         0.00000000
  -V(xc)+E(xc)   XCENC  =        91.12565009
  PAW double counting   =      3020.69835312    -2999.76169802
  entropy T*S    EENTRO =        -0.00240476
  eigenvalues    EBANDS =      -283.33674359
  atomic energy  EATOM  =      2415.92131437
  Solvation  Ediel_sol  =         0.00000000
  ---------------------------------------------------
  free energy    TOTEN  =       156.40090033 eV

  energy without entropy =      156.40330510  energy(sigma->0) =      156.40210272


--------------------------------------------------------------------------------------------------------




--------------------------------------- Iteration      1(   2)  ---------------------------------------


     EDDAV:  cpu time      1.2468: real time      1.2602
       DOS:  cpu time      0.0009: real time      0.0009
    --------------------------------------------
      LOOP:  cpu time      1.2477: real time      1.2611

 eigenvalue-minimisations  :   924
 total energy-change (2. order) :-0.1671031E+03  (-0.1644240E+03)
 number of electron      26.0000000 magnetization 
 augmentation part       26.0000000 magnetization 

 Free energy of the ion-electron system (eV)
  ---------------------------------------------------
  alpha Z        PSCENC =        30.54893193
  Ewald energy   TEWEN  =      4650.11704384
  -Hartree energ DENC   =     -6768.90954666
  -exchange      EXHF   =         0.00000000
  -V(xc)+E(xc)   XCENC  =        91.12565009
  PAW double counting   =      3020.69835312    -2999.76169802
  entropy T*S    EENTRO =        -0.00000000
  eigenvalues    EBANDS =      -450.44227389
  atomic energy  EATOM  =      2415.92131437
  Solvation  Ediel_sol  =         0.00000000
  ---------------------------------------------------
  free energy    TOTEN  =       -10.70222520 eV

  energy without entropy =      -10.70222520  energy(sigma->0) =      -10.70222520


--------------------------------------------------------------------------------------------------------




--------------------------------------- Iteration      1(   3)  ---------------------------------------


     EDDAV:  cpu time      1.2607: real time      1.2689
       DOS:  cpu time      0.0008: real time      0.0008
    --------------------------------------------
      LOOP:  cpu time      1.2615: real time      1.2697

 eigenvalue-minimisations  :   878
 total energy-change (2. order) :-0.1091842E+02  (-0.1083996E+02)
 number of electron      26.0000000 magnetization 
 augmentation part       26.0000000 magnetization 

 Free energy of the ion-electron system (eV)
  ---------------------------------------------------
  alpha Z        PSCENC =        30.54893193
  Ewald energy   TEWEN  =      4650.11704384
  -Hartree energ DENC   =     -6768.90954666
  -exchange      EXHF   =         0.00000000
  -V(xc)+E(xc)   XCENC  =        91.12565009
  PAW double counting   =      3020.69835312    -2999.76169802
  entropy T*S    EENTRO =        -0.00000000
  eigenvalues    EBANDS =      -461.36069483
  atomic energy  EATOM  =      2415.92131437
  Solvation  Ediel_sol  =         0.00000000
  ---------------------------------------------------
  free energy    TOTEN  =       -21.62064615 eV

  energy without entropy =      -21.62064615  energy(sigma->0) =      -21.62064615


--------------------------------------------------------------------------------------------------------




--------------------------------------- Iteration      1(   4)  ---------------------------------------


     EDDAV:  cpu time      1.3094: real time      1.3181
       DOS:  cpu time      0.0013: real time      0.0013
    --------------------------------------------
      LOOP:  cpu time      1.3107: real time      1.3195

 eigenvalue-minimisations  :   922
 total energy-change (2. order) :-0.1986497E+00  (-0.1978448E+00)
 number of electron      26.0000000 magnetization 
 augmentation part       26.0000000 magnetization 

 Free energy of the ion-electron system (eV)
  ---------------------------------------------------
  alpha Z        PSCENC =        30.54893193
  Ewald energy   TEWEN  =      4650.11704384
  -Hartree energ DENC   =     -6768.90954666
  -exchange      EXHF   =         0.00000000
  -V(xc)+E(xc)   XCENC  =        91.12565009
  PAW double counting   =      3020.69835312    -2999.76169802
  entropy T*S    EENTRO =        -0.00000000
  eigenvalues    EBANDS =      -461.55934448
  atomic energy  EATOM  =      2415.92131437
  Solvation  Ediel_sol  =         0.00000000
  ---------------------------------------------------
  free energy    TOTEN  =       -21.81929580 eV

  energy without entropy =      -21.81929580  energy(sigma->0) =      -21.81929580


--------------------------------------------------------------------------------------------------------




--------------------------------------- Iteration      1(   5)  ---------------------------------------


     EDDAV:  cpu time      1.2670: real time      1.2752
       DOS:  cpu time      0.0008: real time      0.0008
    --------------------------------------------
      LOOP:  cpu time      1.2677: real time      1.2760

 eigenvalue-minimisations  :   880
 total energy-change (2. order) :-0.3549123E-02  (-0.3548201E-02)
 number of electron      26.0000000 magnetization 
 augmentation part       26.0000000 magnetization 

 Free energy of the ion-electron system (eV)
  ---------------------------------------------------
  alpha Z        PSCENC =        30.54893193
  Ewald energy   TEWEN  =      4650.11704384
  -Hartree energ DENC   =     -6768.90954666
  -exchange      EXHF   =         0.00000000
  -V(xc)+E(xc)   XCENC  =        91.12565009
  PAW double counting   =      3020.69835312    -2999.76169802
  entropy T*S    EENTRO =        -0.00000000
  eigenvalues    EBANDS =      -461.56289360
  atomic energy  EATOM  =      2415.92131437
  Solvation  Ediel_sol  =         0.00000000
  ---------------------------------------------------
  free energy    TOTEN  =       -21.82284492 eV

  energy without entropy =      -21.82284492  energy(sigma->0) =      -21.82284492


--------------------------------------------------------------------------------------------------------




--------------------------------------- Iteration      1(   6)  ---------------------------------------


     EDDAV:  cpu time      1.2644: real time      1.2726
       DOS:  cpu time      0.0014: real time      0.0014
    --------------------------------------------
      LOOP:  cpu time      1.2658: real time      1.2740

 eigenvalue-minimisations  :   920
 total energy-change (2. order) :-0.1008382E-03  (-0.1008369E-03)
 number of electron      26.0000000 magnetization 
 augmentation part       26.0000000 magnetization 

 Free energy of the ion-electron system (eV)
  ---------------------------------------------------
  alpha Z        PSCENC =        30.54893193
  Ewald energy   TEWEN  =      4650.11704384
  -Hartree energ DENC   =     -6768.90954666
  -exchange      EXHF   =         0.00000000
  -V(xc)+E(xc)   XCENC  =        91.12565009
  PAW double counting   =      3020.69835312    -2999.76169802
  entropy T*S    EENTRO =        -0.00000000
  eigenvalues    EBANDS =      -461.56299444
  atomic energy  EATOM  =      2415.92131437
  Solvation  Ediel_sol  =         0.00000000
  ---------------------------------------------------
  free energy    TOTEN  =       -21.82294576 eV

  energy without entropy =      -21.82294576  energy(sigma->0) =      -21.82294576


--------------------------------------------------------------------------------------------------------




--------------------------------------- Iteration      1(   7)  ---------------------------------------


     EDDAV:  cpu time      1.3000: real time      1.3086
       DOS:  cpu time      0.0008: real time      0.0008
    --------------------------------------------
      LOOP:  cpu time      1.3008: real time      1.3094

 eigenvalue-minimisations  :   908
 total energy-change (2. order) :-0.3975456E-05  (-0.3975502E-05)
 number of electron      26.0000000 magnetization 
 augmentation part       26.0000000 magnetization 

 Free energy of the ion-electron system (eV)
  ---------------------------------------------------
  alpha Z        PSCENC =        30.54893193
  Ewald energy   TEWEN  =      4650.11704384
  -Hartree energ DENC   =     -6768.90954666
  -exchange      EXHF   =         0.00000000
  -V(xc)+E(xc)   XCENC  =        91.12565009
  PAW double counting   =      3020.69835312    -2999.76169802
  entropy T*S    EENTRO =        -0.00000000
  eigenvalues    EBANDS =      -461.56299842
  atomic energy  EATOM  =      2415.92131437
  Solvation  Ediel_sol  =         0.00000000
  ---------------------------------------------------
  free energy    TOTEN  =       -21.82294973 eV

  energy without entropy =      -21.82294973  energy(sigma->0) =      -21.82294973


--------------------------------------------------------------------------------------------------------




--------------------------------------- Iteration      1(   8)  ---------------------------------------


     EDDAV:  cpu time      1.2997: real time      1.3083
       DOS:  cpu time      0.0008: real time      0.0008
    --------------------------------------------
      LOOP:  cpu time      1.3005: real time      1.3091

 eigenvalue-minimisations  :   896
 total energy-change (2. order) :-0.2062079E-06  (-0.2061647E-06)
 number of electron      26.0000000 magnetization 
 augmentation part       26.0000000 magnetization 

 Free energy of the ion-electron system (eV)
  ---------------------------------------------------
  alpha Z        PSCENC =        30.54893193
  Ewald energy   TEWEN  =      4650.11704384
  -Hartree energ DENC   =     -6768.90954666
  -exchange      EXHF   =         0.00000000
  -V(xc)+E(xc)   XCENC  =        91.12565009
  PAW double counting   =      3020.69835312    -2999.76169802
  entropy T*S    EENTRO =        -0.00000000
  eigenvalues    EBANDS =      -461.56299862
  atomic energy  EATOM  =      2415.92131437
  Solvation  Ediel_sol  =         0.00000000
  ---------------------------------------------------
  free energy    TOTEN  =       -21.82294994 eV

  energy without entropy =      -21.82294994  energy(sigma->0) =      -21.82294994


--------------------------------------------------------------------------------------------------------




--------------------------------------- Iteration      1(   9)  ---------------------------------------


     EDDAV:  cpu time      1.1214: real time      1.1286
       DOS:  cpu time      0.0008: real time      0.0008
    --------------------------------------------
      LOOP:  cpu time      1.1222: real time      1.1294

 eigenvalue-minimisations  :   764
 total energy-change (2. order) :-0.9177711E-08  (-0.9210496E-08)
 number of electron      26.0000000 magnetization 
 augmentation part       26.0000000 magnetization 

 Free energy of the ion-electron system (eV)
  ---------------------------------------------------
  alpha Z        PSCENC =        30.54893193
  Ewald energy   TEWEN  =      4650.11704384
  -Hartree energ DENC   =     -6768.90954666
  -exchange      EXHF   =         0.00000000
  -V(xc)+E(xc)   XCENC  =        91.12565009
  PAW double counting   =      3020.69835312    -2999.76169802
  entropy T*S    EENTRO =        -0.00000000
  eigenvalues    EBANDS =      -461.56299863
  atomic energy  EATOM  =      2415.92131437
  Solvation  Ediel_sol  =         0.00000000
  ---------------------------------------------------
  free energy    TOTEN  =       -21.82294995 eV

  energy without entropy =      -21.82294995  energy(sigma->0) =      -21.82294995


--------------------------------------------------------------------------------------------------------




 average (electrostatic) potential at core
  the test charge radii are     1.0818  0.9698
  (the norm of the test charge is              1.0000)
       1 -83.0392       2 -92.7938       3 -92.7938
 
 
 
 E-fermi :  -1.3000     XC(G=0):  -4.2610     alpha+bet : -4.6610

 Fermi energy:        -1.2999999952

 k-point     1 :       0.0000    0.0000    0.0000
  band No.  band energies     occupation 
      1     -62.3156      2.00000
      2     -36.4896      2.00000
      3     -36.2360      2.00000
      4     -36.2360      2.00000
      5     -15.7418      2.00000
      6     -14.3965      2.00000
      7      -7.2656      2.00000
      8      -4.1249      2.00000
      9      -4.1249      2.00000
     10      -3.3692      2.00000
     11      -2.9750      2.00000
     12      -2.9750      2.00000
     13      -1.5883      2.00000
     14       1.3791      0.00000
     15       1.3791      0.00000
     16       1.6369      0.00000
     17       1.6369      0.00000
     18       3.8730      0.00000

 k-point     2 :       0.0833   -0.0000    0.0000
  band No.  band energies     occupation 
      1     -62.3126      2.00000
      2     -36.4838      2.00000
      3     -36.2654      2.00000
      4     -36.2426      2.00000
      5     -15.6331      2.00000
      6     -14.3522      2.00000
      7      -7.1429      2.00000
      8      -4.3616      2.00000
      9      -4.0112      2.00000
     10      -3.8385      2.00000
     11      -3.1468      2.00000
     12      -2.6727      2.00000
     13      -1.6313      2.00000
     14       1.2414      0.00000
     15       1.3324      0.00000
     16       1.5140      0.00000
     17       1.5673      0.00000
     18       4.0461      0.00000

 k-point     3 :       0.1667    0.0000    0.0000
  band No.  band energies     occupation 
      1     -62.3044      2.00000
      2     -36.4679      2.00000
      3     -36.3453      2.00000
      4     -36.2608      2.00000
      5     -15.3239      2.00000
      6     -14.2264      2.00000
      7      -6.8359      2.00000
      8      -4.9009      2.00000
      9      -4.5023      2.00000
     10      -3.6944      2.00000
     11      -3.5500      2.00000
     12      -2.5949      2.00000
     13      -1.8471      2.00000
     14       0.8472      0.00000
     15       1.1883      0.00000
     16       1.2310      0.00000
     17       1.9953      0.00000
     18       4.4681      0.00000

 k-point     4 :       0.2500   -0.0000    0.0000
  band No.  band energies     occupation 
      1     -62.2932      2.00000
      2     -36.4528      2.00000
      3     -36.4461      2.00000
      4     -36.2855      2.00000
      5     -14.8651      2.00000
      6     -14.0412      2.00000
      7      -6.6206      2.00000
      8      -5.3520      2.00000
      9      -5.1789      2.00000
     10      -4.0002      2.00000
     11      -3.2512      2.00000
     12      -2.8612      2.00000
     13      -2.2758      2.00000
     14       0.6975      0.00000
     15       0.9564      0.00000
     16       1.5234      0.00000
     17       2.4318      0.00000
     18       5.0777      0.00000

 k-point     5 :       0.3333    0.0000    0.0000
  band No.  band energies     occupation 
      1     -62.2820      2.00000
      2     -36.5585      2.00000
      3     -36.4242      2.00000
      4     -36.3101      2.00000
      5     -14.3481      2.00000
      6     -13.8372      2.00000
      7      -6.8721      2.00000
      8      -5.8031      2.00000
      9      -5.4550      2.00000
     10      -4.3779      2.00000
     11      -3.1806      2.00000
     12      -2.8113      2.00000
     13      -2.5231      2.00000
     14       0.8230      0.00000
     15       0.8893      0.00000
     16       2.0179      0.00000
     17       2.7430      0.00000
     18       5.7634      0.00000

 k-point     6 :       0.4167   -0.0000    0.0000
  band No.  band energies     occupation 
      1     -62.2737      2.00000
      2     -36.6349      2.00000
      3     -36.4081      2.00000
      4     -36.3280      2.00000
      5     -13.9148      2.00000
      6     -13.6727      2.00000
      7      -7.2583      2.00000
      8      -6.2599      2.00000
      9      -5.5814      2.00000
     10      -4.6228      2.00000
     11      -3.3832      2.00000
     12      -2.5111      2.00000
     13      -2.3306      2.00000
     14       0.8474      0.00000
     15       1.2124      0.00000
     16       2.3670      0.00000
     17       2.9090      0.00000
     18       5.2886      0.00000

 k-point     7 :       0.5000   -0.0000    0.0000
  band No.  band energies     occupation 
      1     -62.2707      2.00000
      2     -36.6626      2.00000
      3     -36.4022      2.00000
      4     -36.3345      2.00000
      5     -13.7399      2.00000
      6     -13.6087      2.00000
      7      -7.4251      2.00000
      8      -6.4291      2.00000
      9      -5.6712      2.00000
     10      -4.7071      2.00000
     11      -3.4483      2.00000
     12      -2.4107      2.00000
     13      -2.1523      2.00000
     14       0.8916      0.00000
     15       1.4004      0.00000
     16       2.4725      0.00000
     17       2.9588      0.00000
     18       4.7497      0.00000

 k-point     8 :       0.0833    0.0833    0.0000
  band No.  band energies     occupation 
      1     -62.3071      2.00000
      2     -36.4729      2.00000
      3     -36.3186      2.00000
      4     -36.2566      2.00000
      5     -15.4240      2.00000
      6     -14.2670      2.00000
      7      -6.9240      2.00000
      8      -4.7426      2.00000
      9      -4.2800      2.00000
     10      -3.8042      2.00000
     11      -3.5478      2.00000
     12      -2.4788      2.00000
     13      -1.7608      2.00000
     14       0.9608      0.00000
     15       1.0965      0.00000
     16       1.2947      0.00000
     17       1.9171      0.00000
     18       4.3394      0.00000

 k-point     9 :       0.1667    0.0833    0.0000
  band No.  band energies     occupation 
      1     -62.2973      2.00000
      2     -36.4541      2.00000
      3     -36.4084      2.00000
      4     -36.2818      2.00000
      5     -15.0390      2.00000
      6     -14.1104      2.00000
      7      -6.6303      2.00000
      8      -5.2213      2.00000
      9      -4.8371      2.00000
     10      -4.1229      2.00000
     11      -3.4765      2.00000
     12      -2.5134      2.00000
     13      -2.0944      2.00000
     14       0.6346      0.00000
     15       1.0595      0.00000
     16       1.1753      0.00000
     17       2.3978      0.00000
     18       4.8620      0.00000

 k-point    10 :       0.2500    0.0833    0.0000
  band No.  band energies     occupation 
      1     -62.2861      2.00000
      2     -36.5104      2.00000
      3     -36.4322      2.00000
      4     -36.3111      2.00000
      5     -14.5472      2.00000
      6     -13.9124      2.00000
      7      -6.6587      2.00000
      8      -5.5021      2.00000
      9      -5.3984      2.00000
     10      -4.5054      2.00000
     11      -3.2341      2.00000
     12      -2.8251      2.00000
     13      -2.3802      2.00000
     14       0.5780      0.00000
     15       1.0190      0.00000
     16       1.5812      0.00000
     17       2.7661      0.00000
     18       5.5513      0.00000

 k-point    11 :       0.3333    0.0833    0.0000
  band No.  band energies     occupation 
      1     -62.2764      2.00000
      2     -36.5974      2.00000
      3     -36.4132      2.00000
      4     -36.3363      2.00000
      5     -14.0629      2.00000
      6     -13.7221      2.00000
      7      -7.0106      2.00000
      8      -6.1092      2.00000
      9      -5.4531      2.00000
     10      -4.6750      2.00000
     11      -3.1771      2.00000
     12      -3.1234      2.00000
     13      -2.2470      2.00000
     14       0.7564      0.00000
     15       1.1531      0.00000
     16       2.0676      0.00000
     17       2.9003      0.00000
     18       5.8728      0.00000

 k-point    12 :       0.4167    0.0833    0.0000
  band No.  band energies     occupation 
      1     -62.2707      2.00000
      2     -36.6471      2.00000
      3     -36.4022      2.00000
      4     -36.3508      2.00000
      5     -13.7476      2.00000
      6     -13.6023      2.00000
      7      -7.2817      2.00000
      8      -6.4642      2.00000
      9      -5.6045      2.00000
     10      -4.7259      2.00000
     11      -3.3969      2.00000
     12      -2.9837      2.00000
     13      -1.9955      2.00000
     14       0.8896      0.00000
     15       1.4009      0.00000
     16       2.4665      0.00000
     17       2.7828      0.00000
     18       5.0067      0.00000

 k-point    13 :       0.1667    0.1667    0.0000
  band No.  band energies     occupation 
      1     -62.2876      2.00000
      2     -36.4857      2.00000
      3     -36.4352      2.00000
      4     -36.3186      2.00000
      5     -14.6181      2.00000
      6     -13.9382      2.00000
      7      -6.5504      2.00000
      8      -5.3585      2.00000
      9      -5.2603      2.00000
     10      -4.7710      2.00000
     11      -3.4644      2.00000
     12      -2.5474      2.00000
     13      -2.3162      2.00000
     14       0.4552      0.00000
     15       1.0780      0.00000
     16       1.2749      0.00000
     17       2.8338      0.00000
     18       5.4817      0.00000

 k-point    14 :       0.2500    0.1667    0.0000
  band No.  band energies     occupation 
      1     -62.2779      2.00000
      2     -36.5582      2.00000
      3     -36.4162      2.00000
      4     -36.3591      2.00000
      5     -14.1488      2.00000
      6     -13.7462      2.00000
      7      -6.7430      2.00000
      8      -5.9777      2.00000
      9      -5.2647      2.00000
     10      -4.8823      2.00000
     11      -3.7682      2.00000
     12      -2.8648      2.00000
     13      -2.2527      2.00000
     14       0.6156      0.00000
     15       1.2052      0.00000
     16       1.5956      0.00000
     17       3.0695      0.00000
     18       6.1645      0.00000

 k-point    15 :       0.3333    0.1667    0.0000
  band No.  band energies     occupation 
      1     -62.2707      2.00000
      2     -36.6095      2.00000
      3     -36.4022      2.00000
      4     -36.3901      2.00000
      5     -13.7627      2.00000
      6     -13.5894      2.00000
      7      -6.9466      2.00000
      8      -6.5289      2.00000
      9      -5.4002      2.00000
     10      -4.7867      2.00000
     11      -3.8856      2.00000
     12      -3.2565      2.00000
     13      -1.9944      2.00000
     14       0.8135      0.00000
     15       1.4484      0.00000
     16       1.9241      0.00000
     17       3.1006      0.00000
     18       5.6290      0.00000

 k-point    16 :       0.4167    0.1667    0.0000
  band No.  band energies     occupation 
      1     -62.2681      2.00000
      2     -36.6279      2.00000
      3     -36.4016      2.00000
      4     -36.3971      2.00000
      5     -13.6096      2.00000
      6     -13.5277      2.00000
      7      -7.0215      2.00000
      8      -6.7294      2.00000
      9      -5.5394      2.00000
     10      -4.7051      2.00000
     11      -3.8747      2.00000
     12      -3.4469      2.00000
     13      -1.8104      2.00000
     14       0.7684      0.00000
     15       1.6969      0.00000
     16       2.0654      0.00000
     17       3.0675      0.00000
     18       5.1389      0.00000

 k-point    17 :       0.2500    0.2500    0.0000
  band No.  band energies     occupation 
      1     -62.2707      2.00000
      2     -36.5843      2.00000
      3     -36.4161      2.00000
      4     -36.4023      2.00000
      5     -13.7702      2.00000
      6     -13.5829      2.00000
      7      -6.7448      2.00000
      8      -6.5588      2.00000
      9      -5.1455      2.00000
     10      -4.8251      2.00000
     11      -4.4750      2.00000
     12      -3.1696      2.00000
     13      -2.0235      2.00000
     14       0.7600      0.00000
     15       1.4802      0.00000
     16       1.6601      0.00000
     17       3.2904      0.00000
     18       6.1463      0.00000

 k-point    18 :       0.3333    0.2500    0.0000
  band No.  band energies     occupation 
      1     -62.2666      2.00000
      2     -36.5895      2.00000
      3     -36.4587      2.00000
      4     -36.3942      2.00000
      5     -13.5344      2.00000
      6     -13.4780      2.00000
      7      -6.9201      2.00000
      8      -6.6159      2.00000
      9      -5.3985      2.00000
     10      -4.7584      2.00000
     11      -4.6127      2.00000
     12      -3.5228      2.00000
     13      -1.7033      2.00000
     14       0.5407      0.00000
     15       1.6839      0.00000
     16       1.9383      0.00000
     17       3.4465      0.00000
     18       5.6286      0.00000

 k-point    19 :       0.3333    0.3333    0.0000
  band No.  band energies     occupation 
      1     -62.2651      2.00000
      2     -36.5574      2.00000
      3     -36.5087      2.00000
      4     -36.3913      2.00000
      5     -13.4493      2.00000
      6     -13.4337      2.00000
      7      -7.0748      2.00000
      8      -6.2123      2.00000
      9      -5.6736      2.00000
     10      -5.0960      2.00000
     11      -4.4436      2.00000
     12      -3.7222      2.00000
     13      -1.5071      2.00000
     14       0.2989      0.00000
     15       1.5735      0.00000
     16       2.1960      0.00000
     17       3.6242      0.00000
     18       5.8728      0.00000


--------------------------------------------------------------------------------------------------------


 soft charge-density along one line, spin component           1
         0         1         2         3         4         5         6         7         8         9
 total charge-density along one line
 
 pseudopotential strength for first ion, spin component:           1
 -4.573  13.022  -0.000   0.000   0.000   0.000  -0.000  -0.000
 13.022   3.187   0.000  -0.000  -0.000  -0.000   0.000   0.000
 -0.000   0.000 -19.889  -0.000   0.000  10.894   0.000  -0.000
  0.000  -0.000  -0.000 -19.884  -0.000   0.000  10.890   0.000
  0.000  -0.000   0.000  -0.000 -19.889  -0.000   0.000  10.894
  0.000  -0.000  10.894   0.000  -0.000   4.632  -0.000   0.000
 -0.000   0.000   0.000  10.890   0.000  -0.000   4.633  -0.000
 -0.000   0.000  -0.000   0.000  10.894   0.000  -0.000   4.632
  0.000  -0.000   0.000   0.000  -0.002  -0.000  -0.000   0.001
 -0.000   0.000   0.000  -0.000   0.000  -0.000   0.000  -0.000
  0.004  -0.002   0.000   0.000  -0.000  -0.000  -0.000   0.000
 -0.000   0.000   0.000   0.000   0.000  -0.000  -0.000  -0.000
 -0.000   0.000  -0.002   0.000   0.000   0.001  -0.000  -0.000
  0.000  -0.000   0.000   0.000  -0.002  -0.000  -0.000   0.001
 -0.000   0.000   0.000  -0.000   0.000  -0.000   0.000  -0.000
  0.004  -0.002   0.000   0.000  -0.000  -0.000  -0.000   0.000
 -0.000   0.000   0.000   0.000   0.000  -0.000  -0.000  -0.000
 -0.000   0.000  -0.002   0.000   0.000   0.001  -0.000  -0.000
 total augmentation occupancy for first ion, spin component:           1
  2.000   0.000   0.000   0.000   0.000   0.000   0.000   0.000   0.000   0.000   0.000   0.000   0.000   0.000   0.000   0.000
  0.000   1.000   0.000   0.000   0.000   0.000   0.000   0.000   0.000   0.000   0.000   0.000   0.000   0.000   0.000   0.000
  0.000   0.000   2.000   0.000   0.000   0.000   0.000   0.000   0.000   0.000   0.000   0.000   0.000   0.000   0.000   0.000
  0.000   0.000   0.000   2.000   0.000   0.000   0.000   0.000   0.000   0.000   0.000   0.000   0.000   0.000   0.000   0.000
  0.000   0.000   0.000   0.000   2.000   0.000   0.000   0.000   0.000   0.000   0.000   0.000   0.000   0.000   0.000   0.000
  0.000   0.000   0.000   0.000   0.000   0.000   0.000   0.000   0.000   0.000   0.000   0.000   0.000   0.000   0.000   0.000
  0.000   0.000   0.000   0.000   0.000   0.000   0.000   0.000   0.000   0.000   0.000   0.000   0.000   0.000   0.000   0.000
  0.000   0.000   0.000   0.000   0.000   0.000   0.000   0.000   0.000   0.000   0.000   0.000   0.000   0.000   0.000   0.000
  0.000   0.000   0.000   0.000   0.000   0.000   0.000   0.000   1.000   0.000   0.000   0.000   0.000   0.000   0.000   0.000
  0.000   0.000   0.000   0.000   0.000   0.000   0.000   0.000   0.000   1.000   0.000   0.000   0.000   0.000   0.000   0.000
  0.000   0.000   0.000   0.000   0.000   0.000   0.000   0.000   0.000   0.000   1.000   0.000   0.000   0.000   0.000   0.000
  0.000   0.000   0.000   0.000   0.000   0.000   0.000   0.000   0.000   0.000   0.000   1.000   0.000   0.000   0.000   0.000
  0.000   0.000   0.000   0.000   0.000   0.000   0.000   0.000   0.000   0.000   0.000   0.000   1.000   0.000   0.000   0.000
  0.000   0.000   0.000   0.000   0.000   0.000   0.000   0.000   0.000   0.000   0.000   0.000   0.000   0.000   0.000   0.000
  0.000   0.000   0.000   0.000   0.000   0.000   0.000   0.000   0.000   0.000   0.000   0.000   0.000   0.000   0.000   0.000
  0.000   0.000   0.000   0.000   0.000   0.000   0.000   0.000   0.000   0.000   0.000   0.000   0.000   0.000   0.000   0.000
  0.000   0.000   0.000   0.000   0.000   0.000   0.000   0.000   0.000   0.000   0.000   0.000   0.000   0.000   0.000   0.000
  0.000   0.000   0.000   0.000   0.000   0.000   0.000   0.000   0.000   0.000   0.000   0.000   0.000   0.000   0.000   0.000


------------------------ aborting loop because EDIFF is reached ----------------------------------------





 total charge

# of ion       s       p       d       tot
------------------------------------------
    1        2.297   6.231   3.980  12.508
    2        1.364   2.351   0.000   3.714
    3        1.364   2.351   0.000   3.714
--------------------------------------------------
tot          5.024  10.932   3.980  19.936
 
    CHARGE:  cpu time      0.0611: real time      0.0616
    FORLOC:  cpu time      0.0040: real time      0.0041
    FORNL :  cpu time      0.0483: real time      0.0485
    STRESS:  cpu time      0.3169: real time      0.3186
    FORCOR:  cpu time      0.0828: real time      0.0833
    FORHAR:  cpu time      0.0238: real time      0.0239
    OFIELD:  cpu time      0.0007: real time      0.0007

  FORCE on cell =-STRESS in cart. coord.  units (eV):
  Direction    XX          YY          ZZ          XY          YZ          ZX
  --------------------------------------------------------------------------------------
  Alpha Z    30.54893    30.54893    30.54893
  Ewald    6071.70806  6071.70808 -7493.29876    -0.00001     0.00000    -0.00000
  Hartree  6530.51204  6530.51204 -6292.06308     0.00000    -0.00000    -0.00000
  E(xc)    -109.91715  -109.91715  -110.16035     0.00000    -0.00000     0.00000
  Local  -13055.75353-13055.75354 13324.79921     0.00000     0.00000     0.00000
  n-local   119.71789   119.38168   125.07496    -3.92262    -0.00000    -0.00000
  augment    -0.54914    -0.54912    -1.73381     0.00002    -0.00000    -0.00000
  Kinetic   414.15071   416.95161   417.92043    -9.43032    -0.00000     0.00000
  Fock        0.00000     0.00000     0.00000     0.00000     0.00000     0.00000
  -------------------------------------------------------------------------------------
  Total       1.65018     1.65018     1.08753    -0.00000    -0.00000     0.00000
  in kB      17.07320    17.07320    11.25192    -0.00000    -0.00000     0.00000
  external pressure =       15.13 kB  Pullay stress =        0.00 kB


 VOLUME and BASIS-vectors are now :
 -----------------------------------------------------------------------------
  energy-cutoff  :      500.00
  volume of cell :      154.86
      direct lattice vectors                 reciprocal lattice vectors
     3.140749283  0.000000000  0.000000000     0.318395360  0.183825647  0.000000000
    -1.570374642  2.719968666  0.000000000     0.000000000  0.367651294  0.000000000
     0.000000000  0.000000000 18.127113342     0.000000000  0.000000000  0.055165982

  length of vectors
     3.140749283  3.140749283 18.127113342     0.367651294  0.367651294  0.055165982


 FORCES acting on ions
    electron-ion (+dipol)            ewald-force                    non-local-force                 convergence-correction
 -----------------------------------------------------------------------------------------------
   0.949E-06 0.456E-06 0.181E-11   0.669E-05 0.361E-05 0.000E+00   -.120E-16 0.173E-17 -.592E-23   0.128E-03 -.782E-04 0.952E-11
   -.242E-04 -.131E-04 -.919E+03   -.335E-05 -.181E-05 0.924E+03   0.264E-17 -.254E-16 -.412E+01   -.107E-03 0.659E-04 0.711E-02
   -.241E-04 -.130E-04 0.919E+03   -.335E-05 -.181E-05 -.924E+03   0.297E-17 -.165E-16 0.412E+01   -.107E-03 0.659E-04 -.711E-02
 -----------------------------------------------------------------------------------------------
   -.473E-04 -.256E-04 -.926E-11   0.187E-14 -.572E-14 0.000E+00   -.642E-17 -.402E-16 -.888E-15   -.874E-04 0.536E-04 0.167E-10
 
 
 POSITION                                       TOTAL-FORCE (eV/Angst)
 -----------------------------------------------------------------------------------
      0.00000      0.00000      9.06356         0.000000     -0.000000      0.000000
      1.57037      0.90666     10.62186        -0.000000      0.000000      0.354242
      1.57037      0.90666      7.50526        -0.000000      0.000000     -0.354242
 -----------------------------------------------------------------------------------
    total drift:                               -0.000135      0.000028      0.000000


--------------------------------------------------------------------------------------------------------



  FREE ENERGIE OF THE ION-ELECTRON SYSTEM (eV)
  ---------------------------------------------------
  free  energy   TOTEN  =       -21.82294995 eV

  energy  without entropy=      -21.82294995  energy(sigma->0) =      -21.82294995
 


--------------------------------------------------------------------------------------------------------


    POTLOK:  cpu time      0.0859: real time      0.0864


--------------------------------------------------------------------------------------------------------


 stress matrix after NEB project (eV)
      1.65018      0.00000      0.00000
     -0.00000      1.65018      0.00000
      0.00000     -0.00000      1.08753
  FORCES: max atom, RMS     0.354242    0.289237
  FORCE total and by dimension    0.500974    0.354242
  Stress total and by dimension    2.574661    1.650175
     LOOP+:  cpu time     12.3470: real time     12.5149
    4ORBIT:  cpu time      0.0000: real time      0.0000



 total charge

# of ion       s       p       d       tot
------------------------------------------
    1        2.297   6.231   3.980  12.508
    2        1.364   2.351   0.000   3.714
    3        1.364   2.351   0.000   3.714
--------------------------------------------------
tot          5.024  10.932   3.980  19.936
 

 total amount of memory used by VASP MPI-rank0    63766. kBytes
=======================================================================

   base      :      30000. kBytes
   nonl-proj :      10929. kBytes
   fftplans  :       6623. kBytes
   grid      :      10695. kBytes
   one-center:         31. kBytes
   wavefun   :       5488. kBytes
 
  
  
 General timing and accounting informations for this job:
 ========================================================
  
                  Total CPU time used (sec):       13.439
                            User time (sec):       12.776
                          System time (sec):        0.663
                         Elapsed time (sec):       14.395
  
                   Maximum memory used (kb):      195500.
                   Average memory used (kb):          N/A
  
                          Minor page faults:        18318
                          Major page faults:          209
                 Voluntary context switches:         1845
