<?xml version="1.0" encoding="ISO-8859-1"?>
<modeling>
 <generator>
  <i name="program" type="string">vasp </i>
  <i name="version" type="string">6.4.2  </i>
  <i name="subversion" type="string">20Jul23 (build Sep 03 2023 18:21:24) complex                          parallel </i>
  <i name="platform" type="string">LinuxIFC </i>
  <i name="date" type="string">2025 06 19 </i>
  <i name="time" type="string">23:53:18 </i>
 </generator>
 <incar>
  <i type="string" name="SYSTEM">CRYSTAL</i>
  <i type="string" name="PREC">A</i>
  <i type="string" name="ALGO">Normal</i>
  <i type="int" name="NSIM">     2</i>
  <i type="int" name="IBRION">     2</i>
  <i name="EDIFF">      0.00001000</i>
  <i name="EDIFFG">     -0.01000000</i>
  <i type="int" name="NSW">     0</i>
  <i type="int" name="ISIF">     3</i>
  <i name="ENCUT">    500.00000000</i>
  <i type="int" name="NEDOS">  2001</i>
  <i type="logical" name="LREAL"> F  </i>
  <i type="logical" name="LPLANE"> T  </i>
  <i name="TIME">      0.40000000</i>
  <i type="int" name="ISMEAR">    -5</i>
  <i name="SIGMA">      0.02000000</i>
  <i type="logical" name="LWAVE"> F  </i>
  <i type="logical" name="LCHARG"> F  </i>
  <i type="int" name="LORBIT">    11</i>
  <i name="HFSCREEN">      0.20000000</i>
  <i type="logical" name="LHFCALC"> T  </i>
  <i type="string" name="PRECFOCK">Fast</i>
 </incar>
 <primitive_cell>
  <structure name="primitive_cell" >
   <crystal>
    <varray name="basis" >
     <v>       0.00000000       2.73434617       2.73434617 </v>
     <v>       2.73434617       0.00000000       2.73434617 </v>
     <v>       2.73434617       2.73434617       0.00000000 </v>
    </varray>
    <i name="volume">     40.88749317 </i>
    <varray name="rec_basis" >
     <v>      -0.18285907       0.18285907       0.18285907 </v>
     <v>       0.18285907      -0.18285907       0.18285907 </v>
     <v>       0.18285907       0.18285907      -0.18285907 </v>
    </varray>
   </crystal>
   <varray name="positions" >
    <v>       0.25000000       0.25000000       0.25000000 </v>
    <v>       0.00000000       0.00000000       0.00000000 </v>
   </varray>
  </structure>
  <varray name="primitive_index" >
   <v type="int" >        1 </v>
   <v type="int" >        2 </v>
  </varray>
 </primitive_cell>
 <kpoints>
  <generation param="Gamma">
   <v type="int" name="divisions">      11       11       11 </v>
   <v name="usershift">      0.00000000       0.00000000       0.00000000 </v>
   <v name="genvec1">      0.09090909       0.00000000      -0.00000000 </v>
   <v name="genvec2">      0.00000000       0.09090909       0.00000000 </v>
   <v name="genvec3">     -0.00000000      -0.00000000       0.09090909 </v>
   <v name="shift">      0.00000000       0.00000000       0.00000000 </v>
  </generation>
  <varray name="kpointlist" >
   <v>       0.00000000       0.00000000       0.00000000 </v>
   <v>       0.09090909      -0.00000000      -0.00000000 </v>
   <v>       0.18181818      -0.00000000      -0.00000000 </v>
   <v>       0.27272727      -0.00000000       0.00000000 </v>
   <v>       0.36363636      -0.00000000      -0.00000000 </v>
   <v>       0.45454545      -0.00000000      -0.00000000 </v>
   <v>       0.09090909       0.09090909      -0.00000000 </v>
   <v>       0.18181818       0.09090909      -0.00000000 </v>
   <v>       0.27272727       0.09090909      -0.00000000 </v>
   <v>       0.36363636       0.09090909      -0.00000000 </v>
   <v>       0.45454545       0.09090909      -0.00000000 </v>
   <v>      -0.45454545       0.09090909      -0.00000000 </v>
   <v>      -0.36363636       0.09090909       0.00000000 </v>
   <v>      -0.27272727       0.09090909       0.00000000 </v>
   <v>      -0.18181818       0.09090909      -0.00000000 </v>
   <v>      -0.09090909       0.09090909       0.00000000 </v>
   <v>       0.18181818       0.18181818      -0.00000000 </v>
   <v>       0.27272727       0.18181818      -0.00000000 </v>
   <v>       0.36363636       0.18181818      -0.00000000 </v>
   <v>       0.45454545       0.18181818      -0.00000000 </v>
   <v>      -0.45454545       0.18181818       0.00000000 </v>
   <v>      -0.36363636       0.18181818      -0.00000000 </v>
   <v>      -0.27272727       0.18181818       0.00000000 </v>
   <v>      -0.18181818       0.18181818       0.00000000 </v>
   <v>       0.27272727       0.27272727      -0.00000000 </v>
   <v>       0.36363636       0.27272727      -0.00000000 </v>
   <v>       0.45454545       0.27272727      -0.00000000 </v>
   <v>      -0.45454545       0.27272727      -0.00000000 </v>
   <v>      -0.36363636       0.27272727      -0.00000000 </v>
   <v>      -0.27272727       0.27272727      -0.00000000 </v>
   <v>       0.36363636       0.36363636      -0.00000000 </v>
   <v>       0.45454545       0.36363636      -0.00000000 </v>
   <v>      -0.45454545       0.36363636      -0.00000000 </v>
   <v>      -0.36363636       0.36363636      -0.00000000 </v>
   <v>       0.45454545       0.45454545      -0.00000000 </v>
   <v>      -0.45454545       0.45454545       0.00000000 </v>
   <v>       0.27272727       0.18181818       0.09090909 </v>
   <v>       0.36363636       0.18181818       0.09090909 </v>
   <v>       0.45454545       0.18181818       0.09090909 </v>
   <v>      -0.45454545       0.18181818       0.09090909 </v>
   <v>       0.36363636       0.27272727       0.09090909 </v>
   <v>       0.45454545       0.27272727       0.09090909 </v>
   <v>      -0.45454545       0.27272727       0.09090909 </v>
   <v>      -0.36363636       0.27272727       0.09090909 </v>
   <v>      -0.27272727       0.27272727       0.09090909 </v>
   <v>      -0.18181818       0.27272727       0.09090909 </v>
   <v>       0.45454545       0.36363636       0.09090909 </v>
   <v>      -0.45454545       0.36363636       0.09090909 </v>
   <v>      -0.36363636       0.36363636       0.09090909 </v>
   <v>      -0.27272727       0.36363636       0.09090909 </v>
   <v>      -0.45454545       0.45454545       0.09090909 </v>
   <v>      -0.36363636       0.45454545       0.09090909 </v>
   <v>      -0.45454545       0.36363636       0.18181818 </v>
   <v>      -0.36363636       0.36363636       0.18181818 </v>
   <v>      -0.36363636       0.45454545       0.18181818 </v>
   <v>      -0.27272727       0.45454545       0.18181818 </v>
  </varray>
  <varray name="weights" >
   <v>       0.00075131 </v>
   <v>       0.00601052 </v>
   <v>       0.00601052 </v>
   <v>       0.00601052 </v>
   <v>       0.00601052 </v>
   <v>       0.00601052 </v>
   <v>       0.00450789 </v>
   <v>       0.01803156 </v>
   <v>       0.01803156 </v>
   <v>       0.01803156 </v>
   <v>       0.01803156 </v>
   <v>       0.01803156 </v>
   <v>       0.01803156 </v>
   <v>       0.01803156 </v>
   <v>       0.01803156 </v>
   <v>       0.00901578 </v>
   <v>       0.00450789 </v>
   <v>       0.01803156 </v>
   <v>       0.01803156 </v>
   <v>       0.01803156 </v>
   <v>       0.01803156 </v>
   <v>       0.01803156 </v>
   <v>       0.01803156 </v>
   <v>       0.00901578 </v>
   <v>       0.00450789 </v>
   <v>       0.01803156 </v>
   <v>       0.01803156 </v>
   <v>       0.01803156 </v>
   <v>       0.01803156 </v>
   <v>       0.00901578 </v>
   <v>       0.00450789 </v>
   <v>       0.01803156 </v>
   <v>       0.01803156 </v>
   <v>       0.00901578 </v>
   <v>       0.00450789 </v>
   <v>       0.00901578 </v>
   <v>       0.01803156 </v>
   <v>       0.03606311 </v>
   <v>       0.03606311 </v>
   <v>       0.03606311 </v>
   <v>       0.01803156 </v>
   <v>       0.03606311 </v>
   <v>       0.03606311 </v>
   <v>       0.03606311 </v>
   <v>       0.03606311 </v>
   <v>       0.01803156 </v>
   <v>       0.01803156 </v>
   <v>       0.03606311 </v>
   <v>       0.03606311 </v>
   <v>       0.01803156 </v>
   <v>       0.01803156 </v>
   <v>       0.01803156 </v>
   <v>       0.01803156 </v>
   <v>       0.03606311 </v>
   <v>       0.01803156 </v>
   <v>       0.01803156 </v>
  </varray>
  <varray name="tetrahedronlist"  type="int" >
   <v type="int" >       48        2        3        8       16 </v>
   <v type="int" >       48        8       15       16       37 </v>
   <v type="int" >       24       15       15       16       37 </v>
   <v type="int" >       48        3        8       15       16 </v>
   <v type="int" >       48       15       24       37       38 </v>
   <v type="int" >       48       14       15       24       38 </v>
   <v type="int" >       24       15       15       24       37 </v>
   <v type="int" >       48       14       23       38       39 </v>
   <v type="int" >       48       13       14       23       39 </v>
   <v type="int" >       48       14       23       24       38 </v>
   <v type="int" >       48       13       22       39       40 </v>
   <v type="int" >       48       12       13       22       40 </v>
   <v type="int" >       48       13       22       23       39 </v>
   <v type="int" >       48       12       21       40       40 </v>
   <v type="int" >       48       11       12       21       40 </v>
   <v type="int" >       48       12       21       22       40 </v>
   <v type="int" >       48       11       20       39       40 </v>
   <v type="int" >       48       10       11       20       39 </v>
   <v type="int" >       48       11       20       21       40 </v>
   <v type="int" >       48       10       19       38       39 </v>
   <v type="int" >       48        9       10       19       38 </v>
   <v type="int" >       48       10       19       20       39 </v>
   <v type="int" >       48        9       18       37       38 </v>
   <v type="int" >       48        8        9       18       37 </v>
   <v type="int" >       48        9       18       19       38 </v>
   <v type="int" >       24        8        8       17       37 </v>
   <v type="int" >       24        7        8        8       17 </v>
   <v type="int" >       48        8       17       18       37 </v>
   <v type="int" >       24        7        8        8       16 </v>
   <v type="int" >       48        2        7        8       16 </v>
   <v type="int" >       48        8        9       15       37 </v>
   <v type="int" >       48        3        8        9       15 </v>
   <v type="int" >       48       18       37       38       41 </v>
   <v type="int" >       24       37       38       38       41 </v>
   <v type="int" >       24       24       37       38       38 </v>
   <v type="int" >       48        9       15       37       38 </v>
   <v type="int" >       48       38       41       42       46 </v>
   <v type="int" >       48       38       39       42       46 </v>
   <v type="int" >       48       23       38       39       46 </v>
   <v type="int" >       24       38       38       41       46 </v>
   <v type="int" >       24       24       38       38       46 </v>
   <v type="int" >       48       23       24       38       46 </v>
   <v type="int" >       48       39       42       43       45 </v>
   <v type="int" >       48       39       40       43       45 </v>
   <v type="int" >       48       22       39       40       45 </v>
   <v type="int" >       48       39       42       45       46 </v>
   <v type="int" >       48       23       39       45       46 </v>
   <v type="int" >       48       22       23       39       45 </v>
   <v type="int" >       48       40       43       44       44 </v>
   <v type="int" >       24       40       40       44       44 </v>
   <v type="int" >       48       21       40       40       44 </v>
   <v type="int" >       48       40       43       44       45 </v>
   <v type="int" >       48       22       40       44       45 </v>
   <v type="int" >       48       21       22       40       44 </v>
   <v type="int" >       48       20       39       40       43 </v>
   <v type="int" >       48       21       40       43       44 </v>
   <v type="int" >       48       20       21       40       43 </v>
   <v type="int" >       48       19       38       39       42 </v>
   <v type="int" >       48       20       39       42       43 </v>
   <v type="int" >       48       19       20       39       42 </v>
   <v type="int" >       48       19       38       41       42 </v>
   <v type="int" >       48       18       19       38       41 </v>
   <v type="int" >       24       18       18       37       41 </v>
   <v type="int" >       24       17       18       18       37 </v>
   <v type="int" >       24        8        8       16       37 </v>
   <v type="int" >       48       18       19       26       41 </v>
   <v type="int" >       48       26       41       42       47 </v>
   <v type="int" >       24       41       42       42       47 </v>
   <v type="int" >       24       41       42       42       46 </v>
   <v type="int" >       48       19       26       41       42 </v>
   <v type="int" >       48       42       47       48       53 </v>
   <v type="int" >       48       42       43       48       53 </v>
   <v type="int" >       48       42       43       45       53 </v>
   <v type="int" >       24       42       42       47       53 </v>
   <v type="int" >       24       42       42       46       53 </v>
   <v type="int" >       48       42       45       46       53 </v>
   <v type="int" >       48       43       48       49       54 </v>
   <v type="int" >       48       43       44       49       54 </v>
   <v type="int" >       48       43       44       44       54 </v>
   <v type="int" >       48       43       48       53       54 </v>
   <v type="int" >       48       43       45       53       54 </v>
   <v type="int" >       48       43       44       45       54 </v>
   <v type="int" >       48       44       49       50       54 </v>
   <v type="int" >       48       44       45       50       54 </v>
   <v type="int" >       48       44       49       54       54 </v>
   <v type="int" >       24       44       44       54       54 </v>
   <v type="int" >       24       45       45       50       53 </v>
   <v type="int" >       24       45       45       46       53 </v>
   <v type="int" >       48       45       50       53       54 </v>
   <v type="int" >       48        9       10       14       38 </v>
   <v type="int" >       48        9       14       15       38 </v>
   <v type="int" >       48       26       27       32       47 </v>
   <v type="int" >       48       26       27       42       47 </v>
   <v type="int" >       48       19       26       27       42 </v>
   <v type="int" >       48       32       47       48       51 </v>
   <v type="int" >       24       47       48       48       51 </v>
   <v type="int" >       24       47       48       48       53 </v>
   <v type="int" >       48       27       32       47       48 </v>
   <v type="int" >       48       27       42       47       48 </v>
   <v type="int" >       48       48       51       52       55 </v>
   <v type="int" >       48       48       49       52       55 </v>
   <v type="int" >       48       48       49       54       55 </v>
   <v type="int" >       24       48       48       51       55 </v>
   <v type="int" >       24       48       48       53       55 </v>
   <v type="int" >       48       48       53       54       55 </v>
   <v type="int" >       24       49       49       52       56 </v>
   <v type="int" >       24       49       49       50       56 </v>
   <v type="int" >       48       49       50       54       56 </v>
   <v type="int" >       48       49       52       55       56 </v>
   <v type="int" >       48       49       54       55       56 </v>
   <v type="int" >       48       49       54       54       56 </v>
   <v type="int" >       24       50       54       54       56 </v>
   <v type="int" >       24       50       53       54       54 </v>
   <v type="int" >       48       10       11       13       39 </v>
   <v type="int" >       48       10       13       14       39 </v>
   <v type="int" >       48       10       14       38       39 </v>
   <v type="int" >       48       32       33       36       51 </v>
   <v type="int" >       48       32       33       48       51 </v>
   <v type="int" >       48       27       32       33       48 </v>
   <v type="int" >       24       36       51       51       52 </v>
   <v type="int" >       12       51       51       52       52 </v>
   <v type="int" >       24       51       52       52       55 </v>
   <v type="int" >       48       33       36       51       52 </v>
   <v type="int" >       48       33       48       51       52 </v>
   <v type="int" >       12       52       52       55       55 </v>
   <v type="int" >       24       52       55       55       56 </v>
   <v type="int" >       48       11       12       12       40 </v>
   <v type="int" >       48       11       12       13       40 </v>
   <v type="int" >       48       11       13       39       40 </v>
   <v type="int" >       24       33       33       36       52 </v>
   <v type="int" >       24       12       12       40       40 </v>
   <v type="int" >       24        2        2        7       16 </v>
   <v type="int" >       48        3        4        9       15 </v>
   <v type="int" >       48        4        9       14       15 </v>
   <v type="int" >       24       23       23       24       46 </v>
   <v type="int" >       48       23       30       45       46 </v>
   <v type="int" >       48       22       23       30       45 </v>
   <v type="int" >       24       23       23       30       46 </v>
   <v type="int" >       48       22       29       44       45 </v>
   <v type="int" >       48       21       22       29       44 </v>
   <v type="int" >       48       22       29       30       45 </v>
   <v type="int" >       48       21       28       43       44 </v>
   <v type="int" >       48       20       21       28       43 </v>
   <v type="int" >       48       21       28       29       44 </v>
   <v type="int" >       48       20       27       42       43 </v>
   <v type="int" >       48       19       20       27       42 </v>
   <v type="int" >       48       20       27       28       43 </v>
   <v type="int" >       24       18       18       25       41 </v>
   <v type="int" >       24       17       18       18       25 </v>
   <v type="int" >       48       18       25       26       41 </v>
   <v type="int" >       48        4        9       10       14 </v>
   <v type="int" >       24       30       45       45       46 </v>
   <v type="int" >       48       29       44       45       50 </v>
   <v type="int" >       24       30       45       45       50 </v>
   <v type="int" >       48       29       30       45       50 </v>
   <v type="int" >       48       28       43       44       49 </v>
   <v type="int" >       48       29       44       49       50 </v>
   <v type="int" >       48       28       29       44       49 </v>
   <v type="int" >       48       27       42       43       48 </v>
   <v type="int" >       48       28       43       48       49 </v>
   <v type="int" >       48       27       28       43       48 </v>
   <v type="int" >       24       26       26       41       47 </v>
   <v type="int" >       24       25       26       26       41 </v>
   <v type="int" >       24       53       54       54       55 </v>
   <v type="int" >       48       54       55       56       56 </v>
   <v type="int" >       24       54       54       56       56 </v>
   <v type="int" >       24       54       54       55       56 </v>
   <v type="int" >       48       27       28       33       48 </v>
   <v type="int" >       48       33       48       49       52 </v>
   <v type="int" >       48       28       33       48       49 </v>
   <v type="int" >       12       55       55       56       56 </v>
   <v type="int" >       24       55       56       56       56 </v>
   <v type="int" >        6       56       56       56       56 </v>
   <v type="int" >       24       33       33       34       52 </v>
   <v type="int" >       48       33       34       49       52 </v>
   <v type="int" >       48       28       33       34       49 </v>
   <v type="int" >       24       34       49       49       52 </v>
   <v type="int" >       48        4        5       10       14 </v>
   <v type="int" >       48        5       10       13       14 </v>
   <v type="int" >       24       29       29       30       50 </v>
   <v type="int" >       48       29       34       49       50 </v>
   <v type="int" >       48       28       29       34       49 </v>
   <v type="int" >       24       29       29       34       50 </v>
   <v type="int" >       24       26       26       31       47 </v>
   <v type="int" >       24       25       26       26       31 </v>
   <v type="int" >       48       26       31       32       47 </v>
   <v type="int" >       48        5       10       11       13 </v>
   <v type="int" >       24       34       49       49       50 </v>
   <v type="int" >       24       32       32       47       51 </v>
   <v type="int" >       24       31       32       32       47 </v>
   <v type="int" >       48        5        6       11       13 </v>
   <v type="int" >       48        6       11       12       13 </v>
   <v type="int" >       24       32       32       35       51 </v>
   <v type="int" >       24       31       32       32       35 </v>
   <v type="int" >       48       32       35       36       51 </v>
   <v type="int" >       48        6       11       12       12 </v>
   <v type="int" >       12       36       36       51       51 </v>
   <v type="int" >       24       35       36       36       51 </v>
   <v type="int" >       24        6        6       12       12 </v>
   <v type="int" >       12       35       35       36       36 </v>
   <v type="int" >       24        1        2        2        7 </v>
  </varray>
  <i name="volumeweight">      0.00012522 </i>
 </kpoints>
 <parameters>
  <separator name="general" >
   <i type="string" name="SYSTEM">CRYSTAL</i>
   <i type="logical" name="LCOMPAT"> F  </i>
  </separator>
  <separator name="electronic" >
   <i type="string" name="PREC">a</i>
   <i name="ENMAX">    500.00000000</i>
   <i name="ENAUG">    322.06900000</i>
   <i name="EDIFF">      0.00001000</i>
   <i type="int" name="IALGO">    38</i>
   <i type="int" name="IWAVPR">    10</i>
   <i type="int" name="NBANDS">     8</i>
   <i type="int" name="NBANDSLOW">    -1</i>
   <i type="int" name="NBANDSHIGH">    -1</i>
   <i name="NELECT">      8.00000000</i>
   <i type="int" name="TURBO">     0</i>
   <i type="int" name="IRESTART">     0</i>
   <i type="int" name="NREBOOT">     0</i>
   <i type="int" name="NMIN">     0</i>
   <i name="EREF">      0.00000000</i>
   <separator name="electronic smearing" >
    <i type="int" name="ISMEAR">    -5</i>
    <i name="SIGMA">      0.02000000</i>
    <i name="KSPACING">      0.50000000</i>
    <i type="logical" name="KGAMMA"> T  </i>
    <i type="logical" name="KBLOWUP"> T  </i>
   </separator>
   <separator name="electronic projectors" >
    <i type="logical" name="LREAL"> F  </i>
    <v name="ROPT">      0.00000000</v>
    <i type="int" name="LMAXPAW">  -100</i>
    <i type="int" name="LMAXMIX">     2</i>
    <i type="logical" name="NLSPLINE"> F  </i>
   </separator>
   <separator name="electronic startup" >
    <i type="int" name="ISTART">     1</i>
    <i type="int" name="ICHARG">     0</i>
    <i type="int" name="INIWAV">     1</i>
   </separator>
   <separator name="electronic spin" >
    <i type="int" name="ISPIN">     1</i>
    <i type="logical" name="LNONCOLLINEAR"> F  </i>
    <v name="MAGMOM">      1.00000000      1.00000000</v>
    <i name="NUPDOWN">     -1.00000000</i>
    <i type="logical" name="LSORBIT"> F  </i>
    <v name="SAXIS">      0.00000000      0.00000000      1.00000000</v>
    <i type="logical" name="LSPIRAL"> F  </i>
    <v name="QSPIRAL">      0.00000000      0.00000000      0.00000000</v>
    <i type="logical" name="LZEROZ"> F  </i>
   </separator>
   <separator name="electronic exchange-correlation" >
    <i type="logical" name="LASPH"> F  </i>
    <i type="logical" name="LMETAGGA"> F  </i>
   </separator>
   <separator name="electronic convergence" >
    <i type="int" name="NELM">    60</i>
    <i type="int" name="NELMDL">     0</i>
    <i type="int" name="NELMIN">     2</i>
    <i name="ENINI">    500.00000000</i>
    <separator name="electronic convergence detail" >
     <i type="logical" name="LDIAG"> T  </i>
     <i type="logical" name="LSUBROT"> F  </i>
     <i name="WEIMIN">      0.00000000</i>
     <i name="EBREAK">      0.00000031</i>
     <i name="DEPER">      0.30000000</i>
     <i type="int" name="NRMM">     4</i>
     <i name="TIME">      0.40000000</i>
    </separator>
   </separator>
   <separator name="electronic mixer" >
    <i name="AMIX">      0.40000000</i>
    <i name="BMIX">      1.00000000</i>
    <i name="AMIN">      0.10000000</i>
    <i name="AMIX_MAG">      1.60000000</i>
    <i name="BMIX_MAG">      1.00000000</i>
    <separator name="electronic mixer details" >
     <i type="int" name="IMIX">     1</i>
     <i type="logical" name="MIXFIRST"> F  </i>
     <i type="int" name="MAXMIX">   -45</i>
     <i name="WC">    100.00000000</i>
     <i type="int" name="INIMIX">     1</i>
     <i type="int" name="MIXPRE">     1</i>
     <i type="int" name="MREMOVE">     5</i>
    </separator>
   </separator>
   <separator name="electronic dipolcorrection" >
    <i type="logical" name="LDIPOL"> F  </i>
    <i type="logical" name="LMONO"> F  </i>
    <i type="int" name="IDIPOL">     0</i>
    <i name="EPSILON">      1.00000000</i>
    <v name="DIPOL">   -100.00000000   -100.00000000   -100.00000000</v>
    <i name="EFIELD">      0.00000000</i>
   </separator>
  </separator>
  <separator name="grids" >
   <i type="int" name="NGX">    28</i>
   <i type="int" name="NGY">    28</i>
   <i type="int" name="NGZ">    28</i>
   <i type="int" name="NGXF">    56</i>
   <i type="int" name="NGYF">    56</i>
   <i type="int" name="NGZF">    56</i>
   <i type="logical" name="ADDGRID"> F  </i>
  </separator>
  <separator name="ionic" >
   <i type="int" name="NSW">     0</i>
   <i type="int" name="IBRION">    -1</i>
   <i type="int" name="MDALGO">     0</i>
   <i type="int" name="ISIF">     3</i>
   <i name="PSTRESS">      0.00000000</i>
   <i name="EDIFFG">     -0.01000000</i>
   <i type="int" name="NFREE">     1</i>
   <i name="POTIM">      0.50000000</i>
   <i name="SMASS">     -3.00000000</i>
   <i name="SCALEE">      1.00000000</i>
  </separator>
  <separator name="ionic md" >
   <i name="TEBEG">      0.00010000</i>
   <i name="TEEND">      0.00010000</i>
   <i type="int" name="NBLOCK">     1</i>
   <i type="int" name="KBLOCK">     1</i>
   <i type="int" name="NPACO">   256</i>
   <i name="APACO">     10.00000000</i>
  </separator>
  <separator name="symmetry" >
   <i type="int" name="ISYM">     3</i>
   <i name="SYMPREC">      0.00001000</i>
  </separator>
  <separator name="dos" >
   <i type="int" name="LORBIT">    11</i>
   <v name="RWIGS">     -1.00000000</v>
   <i type="int" name="NEDOS">  2001</i>
   <i name="EMIN">     10.00000000</i>
   <i name="EMAX">    -10.00000000</i>
   <i name="EFERMI">      0.00000000</i>
  </separator>
  <separator name="writing" >
   <i type="int" name="NWRITE">     2</i>
   <i type="logical" name="LWAVE"> F  </i>
   <i type="logical" name="LDOWNSAMPLE"> F  </i>
   <i type="logical" name="LCHARG"> F  </i>
   <i type="logical" name="LPARD"> F  </i>
   <i type="logical" name="LVTOT"> F  </i>
   <i type="logical" name="LVHAR"> F  </i>
   <i type="logical" name="LELF"> F  </i>
   <i type="logical" name="LOPTICS"> F  </i>
   <v name="STM">      0.00000000      0.00000000      0.00000000      0.00000000      0.00000000      0.00000000      0.00000000</v>
  </separator>
  <separator name="performance" >
   <i type="int" name="NPAR">     4</i>
   <i type="int" name="NSIM">     2</i>
   <i type="int" name="NBLK">    -1</i>
   <i type="logical" name="LPLANE"> T  </i>
   <i type="logical" name="LSCALAPACK"> T  </i>
   <i type="logical" name="LSCAAWARE"> F  </i>
   <i type="logical" name="LSCALU"> F  </i>
   <i type="logical" name="LASYNC"> F  </i>
   <i type="logical" name="LORBITALREAL"> F  </i>
  </separator>
  <separator name="miscellaneous" >
   <i type="int" name="IDIOT">     3</i>
   <i type="int" name="PHON_NSTRUCT">    -1</i>
   <i type="logical" name="LMUSIC"> F  </i>
   <v name="POMASS">     28.08500000</v>
   <v name="DARWINR">      0.00000000</v>
   <v name="DARWINV">      1.00000000</v>
   <i type="logical" name="LCORR"> T  </i>
  </separator>
  <i type="logical" name="GGA_COMPAT"> T  </i>
  <i type="logical" name="LBERRY"> F  </i>
  <i type="int" name="ICORELEVEL">     0</i>
  <i type="logical" name="LDAU"> F  </i>
  <i type="int" name="I_CONSTRAINED_M">     0</i>
  <separator name="electronic exchange-correlation" >
   <i type="string" name="GGA">--</i>
   <i type="int" name="VOSKOWN">     0</i>
   <i type="logical" name="LHFCALC"> T  </i>
   <i type="string" name="PRECFOCK">fast</i>
   <i type="logical" name="LSYMGRAD"> F  </i>
   <i type="logical" name="LHFONE"> F  </i>
   <i type="logical" name="LRHFCALC"> F  </i>
   <i type="logical" name="LTHOMAS"> F  </i>
   <i type="logical" name="LMODELHF"> F  </i>
   <i type="logical" name="LFOCKACE"> T  </i>
   <i name="ENCUT4O">     -1.00000000</i>
   <i type="int" name="EXXOEP">     0</i>
   <i type="int" name="FOURORBIT">     0</i>
   <i name="AEXX">      0.25000000</i>
   <i name="HFALPHA">     -1.00000000</i>
   <i name="MCALPHA">      0.00000000</i>
   <i name="ALDAX">      0.75000000</i>
   <i name="AGGAX">      0.75000000</i>
   <i name="ALDAC">      1.00000000</i>
   <i name="AGGAC">      1.00000000</i>
   <i type="int" name="NKREDX">     1</i>
   <i type="int" name="NKREDY">     1</i>
   <i type="int" name="NKREDZ">     1</i>
   <i type="logical" name="SHIFTRED"> F  </i>
   <i type="logical" name="ODDONLY"> F  </i>
   <i type="logical" name="EVENONLY"> F  </i>
   <i type="int" name="LMAXFOCK">     4</i>
   <i type="int" name="NMAXFOCKAE">     1</i>
   <i type="logical" name="LFOCKAEDFT"> F  </i>
   <i name="HFSCREEN">      0.20000000</i>
   <i name="HFSCREENC">      0.20000000</i>
   <i type="int" name="NBANDSGWLOW">     1</i>
  </separator>
  <separator name="vdW DFT" >
   <i type="logical" name="LUSE_VDW"> F  </i>
   <i type="int" name="IVDW_NL">     1</i>
   <i type="logical" name="LSPIN_VDW"> F  </i>
   <i name="Zab_VDW">     -0.84910000</i>
   <i name="PARAM1">      0.12340000</i>
   <i name="PARAM2">      1.00000000</i>
   <i name="PARAM3">      0.00000000</i>
  </separator>
  <separator name="model GW" >
   <i type="int" name="MODEL_GW">     0</i>
   <i name="MODEL_EPS0">     12.26624795</i>
   <i name="MODEL_ALPHA">      1.00000000</i>
  </separator>
  <separator name="linear response parameters" >
   <i type="logical" name="LEPSILON"> F  </i>
   <i type="logical" name="LRPA"> F  </i>
   <i type="logical" name="LNABLA"> F  </i>
   <i type="logical" name="LVEL"> F  </i>
   <i name="CSHIFT">      0.10000000</i>
   <i name="OMEGAMAX">     -1.00000000</i>
   <i name="DEG_THRESHOLD">      0.00200000</i>
   <i name="RTIME">     -0.10000000</i>
   <i name="WPLASMAI">      0.00000000</i>
   <v name="DFIELD">      0.00000000      0.00000000      0.00000000</v>
   <v name="WPLASMA">      0.00000000      0.00000000      0.00000000      0.00000000      0.00000000      0.00000000      0.00000000      0.00000000      0.00000000</v>
  </separator>
  <separator name="orbital magnetization" >
   <i type="logical" name="NUCIND"> F  </i>
   <v name="MAGPOS">      0.00000000      0.00000000      0.00000000</v>
   <i type="logical" name="LNICSALL"> T  </i>
   <i type="logical" name="ORBITALMAG"> F  </i>
   <i type="logical" name="LMAGBLOCH"> F  </i>
   <i type="logical" name="LCHIMAG"> F  </i>
   <i type="logical" name="LGAUGE"> T  </i>
   <i type="int" name="MAGATOM">     0</i>
   <v name="MAGDIPOL">      0.00000000      0.00000000      0.00000000</v>
   <v name="AVECCONST">      0.00000000      0.00000000      0.00000000</v>
  </separator>
  <separator name="response functions" >
   <i type="logical" name="LALL_IN_ONE"> F  </i>
   <i type="int" name="IALL_IN_ONE">    -1</i>
   <i type="int" name="NBANDS_WAVE">    -1</i>
   <i type="logical" name="LFINITE_TEMPERATURE"> F  </i>
   <i type="logical" name="LADDER"> F  </i>
   <i type="logical" name="LRPAFORCE"> F  </i>
   <i type="logical" name="LFXC"> F  </i>
   <i type="logical" name="LHARTREE"> T  </i>
   <i type="int" name="IBSE">     0</i>
   <v type="int" name="KPOINT">    -1     0     0     0</v>
   <i type="logical" name="LTCTC"> F  </i>
   <i type="logical" name="LTCTE"> F  </i>
   <i type="logical" name="LTETE"> F  </i>
   <i type="logical" name="LTRIPLET"> F  </i>
   <i type="logical" name="LFXCEPS"> F  </i>
   <i type="logical" name="LFXHEG"> F  </i>
   <i type="int" name="NATURALO">     2</i>
   <i type="logical" name="LHOLEGF"> F  </i>
   <i type="logical" name="L2ORDER"> F  </i>
   <i type="logical" name="LDMP1"> F  </i>
   <i type="logical" name="LMP2LT"> F  </i>
   <i type="logical" name="LSMP2LT"> F  </i>
   <i type="logical" name="LGWLF"> F  </i>
   <i name="ENCUTGW">     -1.60000002</i>
   <i name="ENCUTGWSOFT">     -1.60000002</i>
   <i name="ENCUTLF">     -1.00000000</i>
   <i type="logical" name="LESF_SPLINES"> F  </i>
   <i type="int" name="LMAXMP2">    -1</i>
   <i name="SCISSOR">      0.00000000</i>
   <i type="int" name="NOMEGA">     0</i>
   <i type="int" name="NOMEGAR">     0</i>
   <i type="int" name="NBANDSGW">    -1</i>
   <i type="int" name="NBANDSO">    -1</i>
   <i type="int" name="NBANDSV">    -1</i>
   <i type="int" name="NELMGW">     1</i>
   <i type="int" name="NELMHF">     1</i>
   <i type="int" name="DIM">     3</i>
   <i type="int" name="IESPILON">     4</i>
   <i type="int" name="ANTIRES">     0</i>
   <i name="OMEGAMAX">    -30.00000000</i>
   <i name="OMEGAMIN">    -30.00000000</i>
   <i name="OMEGATL">   -200.00000000</i>
   <i type="int" name="OMEGAGRID">     0</i>
   <i name="CSHIFT">     -0.10000000</i>
   <i type="logical" name="LSELFENERGY"> F  </i>
   <i type="logical" name="LSPECTRAL"> F  </i>
   <i type="logical" name="LSPECTRALGW"> F  </i>
   <i type="logical" name="LSINGLES"> F  </i>
   <i type="logical" name="LFERMIGW"> F  </i>
   <i type="logical" name="ODDONLYGW"> F  </i>
   <i type="logical" name="EVENONLYGW"> F  </i>
   <i type="int" name="NKREDLFX">     1</i>
   <i type="int" name="NKREDLFY">     1</i>
   <i type="int" name="NKREDLFZ">     1</i>
   <i type="int" name="MAXMEM">  2800</i>
   <i type="int" name="TELESCOPE">     0</i>
   <i type="int" name="NTAUPAR">    -1</i>
   <i type="int" name="NOMEGAPAR">    -1</i>
   <i name="DAMP_NEWTON">      0.80000001</i>
   <i name="LAMBDA">      1.00000000</i>
  </separator>
  <separator name="External order field" >
   <i name="OFIELD_KAPPA">      0.00000000</i>
   <v name="OFIELD_K">      0.00000000      0.00000000      0.00000000</v>
   <i name="OFIELD_Q6_NEAR">      0.00000000</i>
   <i name="OFIELD_Q6_FAR">      0.00000000</i>
   <i name="OFIELD_A">      0.00000000</i>
  </separator>
  <separator name="optional k-points parameters" >
   <i type="int" name="KPOINTS_OPT_MODE">     1</i>
   <i type="logical" name="LKPOINTS_OPT"> F  </i>
  </separator>
 </parameters>
 <atominfo>
  <atoms>       2 </atoms>
  <types>       1 </types>
  <array name="atoms" >
   <dimension dim="1">ion</dimension>
   <field type="string">element</field>
   <field type="int">atomtype</field>
   <set>
    <rc><c>Si</c><c>   1</c></rc>
    <rc><c>Si</c><c>   1</c></rc>
   </set>
  </array>
  <array name="atomtypes" >
   <dimension dim="1">type</dimension>
   <field type="int">atomspertype</field>
   <field type="string">element</field>
   <field>mass</field>
   <field>valence</field>
   <field type="string">pseudopotential</field>
   <set>
    <rc><c>   2</c><c>Si</c><c>     28.08500000</c><c>      4.00000000</c><c>  PAW_PBE Si 05Jan2001                  </c></rc>
   </set>
  </array>
 </atominfo>
 <structure name="initialpos" >
  <crystal>
   <varray name="basis" >
    <v>       0.00000000       2.73434617       2.73434617 </v>
    <v>       2.73434617       0.00000000       2.73434617 </v>
    <v>       2.73434617       2.73434617       0.00000000 </v>
   </varray>
   <i name="volume">     40.88749317 </i>
   <varray name="rec_basis" >
    <v>      -0.18285907       0.18285907       0.18285907 </v>
    <v>       0.18285907      -0.18285907       0.18285907 </v>
    <v>       0.18285907       0.18285907      -0.18285907 </v>
   </varray>
  </crystal>
  <varray name="positions" >
   <v>       0.25000000       0.25000000       0.25000000 </v>
   <v>       0.00000000       0.00000000       0.00000000 </v>
  </varray>
 </structure>
 <calculation>
  <scstep>
   <time name="dav">   19.40   19.43</time>
   <time name="total">   19.48   19.52</time>
   <energy>
    <i name="alphaZ">      3.29324477 </i>
    <i name="ewald">   -226.94638158 </i>
    <i name="hartreedc">    -15.21505902 </i>
    <i name="XCdc">    -14.44357424 </i>
    <i name="pawpsdc">   1626.43516495 </i>
    <i name="pawaedc">  -1598.78514855 </i>
    <i name="eentropy">      0.00000000 </i>
    <i name="bandstr">     -2.14024569 </i>
    <i name="atom">    203.99835660 </i>
    <i name="e_fr_energy">    -12.58219966 </i>
    <i name="e_wo_entrp">    -12.58219966 </i>
    <i name="e_0_energy">    -12.58219966 </i>
   </energy>
  </scstep>
  <scstep>
   <time name="dav">   19.37   19.40</time>
   <time name="total">   19.39   19.43</time>
   <energy>
    <i name="alphaZ">      3.29324477 </i>
    <i name="ewald">   -226.94638158 </i>
    <i name="hartreedc">    -15.21479060 </i>
    <i name="XCdc">    -14.44361363 </i>
    <i name="pawpsdc">   1626.09391925 </i>
    <i name="pawaedc">  -1598.44389917 </i>
    <i name="eentropy">      0.00000000 </i>
    <i name="bandstr">     -2.14035824 </i>
    <i name="atom">    203.99835660 </i>
    <i name="e_fr_energy">    -12.58219979 </i>
    <i name="e_wo_entrp">    -12.58219979 </i>
    <i name="e_0_energy">    -12.58219979 </i>
   </energy>
  </scstep>
  <structure>
   <crystal>
    <varray name="basis" >
     <v>       0.00000000       2.73434617       2.73434617 </v>
     <v>       2.73434617       0.00000000       2.73434617 </v>
     <v>       2.73434617       2.73434617       0.00000000 </v>
    </varray>
    <i name="volume">     40.88749317 </i>
    <varray name="rec_basis" >
     <v>      -0.18285907       0.18285907       0.18285907 </v>
     <v>       0.18285907      -0.18285907       0.18285907 </v>
     <v>       0.18285907       0.18285907      -0.18285907 </v>
    </varray>
   </crystal>
   <varray name="positions" >
    <v>       0.25000000       0.25000000       0.25000000 </v>
    <v>       0.00000000       0.00000000       0.00000000 </v>
   </varray>
  </structure>
  <varray name="forces" >
   <v>      -0.00000000      -0.00000000      -0.00000000 </v>
   <v>       0.00000000       0.00000000       0.00000000 </v>
  </varray>
  <varray name="stress" >
   <v>     -18.65523514      -0.00000000       0.00000000 </v>
   <v>       0.00000000     -18.65523514      -0.00000000 </v>
   <v>      -0.00000000       0.00000000     -18.65523514 </v>
  </varray>
  <energy>
   <i name="e_fr_energy">    -12.58219979 </i>
   <i name="e_wo_entrp">    -12.58219979 </i>
   <i name="e_0_energy">    -12.58219979 </i>
  </energy>
  <time name="totalsc">   58.84   58.95</time>
  <eigenvalues>
   <array>
    <dimension dim="1">band</dimension>
    <dimension dim="2">kpoint</dimension>
    <dimension dim="3">spin</dimension>
    <field>eigene</field>
    <field>occ</field>
    <set>
     <set comment="spin 1">
      <set comment="kpoint 1">
       <r>   -7.8910    1.0000 </r>
       <r>    5.2577    1.0000 </r>
       <r>    5.2577    1.0000 </r>
       <r>    5.2577    1.0000 </r>
       <r>    8.5837    0.0000 </r>
       <r>    8.5837    0.0000 </r>
       <r>    8.5837    0.0000 </r>
       <r>    9.3289    0.0000 </r>
      </set>
      <set comment="kpoint 2">
       <r>   -7.7730    1.0000 </r>
       <r>    4.2299    1.0000 </r>
       <r>    5.0887    1.0000 </r>
       <r>    5.0887    1.0000 </r>
       <r>    8.5818    0.0000 </r>
       <r>    8.8379    0.0000 </r>
       <r>    8.8379    0.0000 </r>
       <r>   10.1408    0.0000 </r>
      </set>
      <set comment="kpoint 3">
       <r>   -7.4236    1.0000 </r>
       <r>    2.3971    1.0000 </r>
       <r>    4.7292    1.0000 </r>
       <r>    4.7292    1.0000 </r>
       <r>    8.2408    0.0000 </r>
       <r>    9.3398    0.0000 </r>
       <r>    9.3398    0.0000 </r>
       <r>   11.8180    0.0000 </r>
      </set>
      <set comment="kpoint 4">
       <r>   -6.8605    1.0000 </r>
       <r>    0.5564    1.0000 </r>
       <r>    4.3749    1.0000 </r>
       <r>    4.3749    1.0000 </r>
       <r>    7.8674    0.0000 </r>
       <r>    9.6098    0.0000 </r>
       <r>    9.6098    0.0000 </r>
       <r>   13.4639    0.0000 </r>
      </set>
      <set comment="kpoint 5">
       <r>   -6.1398    1.0000 </r>
       <r>   -1.0606    1.0000 </r>
       <r>    4.1156    1.0000 </r>
       <r>    4.1156    1.0000 </r>
       <r>    7.5893    0.0000 </r>
       <r>    9.5482    0.0000 </r>
       <r>    9.5482    0.0000 </r>
       <r>   14.0585    0.0000 </r>
      </set>
      <set comment="kpoint 6">
       <r>   -5.4751    1.0000 </r>
       <r>   -2.1832    1.0000 </r>
       <r>    3.9818    1.0000 </r>
       <r>    3.9818    1.0000 </r>
       <r>    7.4449    0.0000 </r>
       <r>    9.4343    0.0000 </r>
       <r>    9.4343    0.0000 </r>
       <r>   13.8894    0.0000 </r>
      </set>
      <set comment="kpoint 7">
       <r>   -7.7335    1.0000 </r>
       <r>    4.4100    1.0000 </r>
       <r>    4.7568    1.0000 </r>
       <r>    4.7568    1.0000 </r>
       <r>    8.2307    0.0000 </r>
       <r>    9.2708    0.0000 </r>
       <r>    9.2708    0.0000 </r>
       <r>   10.0834    0.0000 </r>
      </set>
      <set comment="kpoint 8">
       <r>   -7.4604    1.0000 </r>
       <r>    2.9377    1.0000 </r>
       <r>    4.3319    1.0000 </r>
       <r>    4.5320    1.0000 </r>
       <r>    8.2426    0.0000 </r>
       <r>    9.3371    0.0000 </r>
       <r>    9.9020    0.0000 </r>
       <r>   11.0637    0.0000 </r>
      </set>
      <set comment="kpoint 9">
       <r>   -6.9656    1.0000 </r>
       <r>    1.1471    1.0000 </r>
       <r>    3.9792    1.0000 </r>
       <r>    4.1368    1.0000 </r>
       <r>    8.3458    0.0000 </r>
       <r>    9.3521    0.0000 </r>
       <r>   10.2830    0.0000 </r>
       <r>   11.4885    0.0000 </r>
      </set>
      <set comment="kpoint 10">
       <r>   -6.2864    1.0000 </r>
       <r>   -0.5270    1.0000 </r>
       <r>    3.7207    1.0000 </r>
       <r>    3.7667    1.0000 </r>
       <r>    8.1844    0.0000 </r>
       <r>    9.3811    0.0000 </r>
       <r>   10.2135    0.0000 </r>
       <r>   12.3152    0.0000 </r>
      </set>
      <set comment="kpoint 11">
       <r>   -5.5558    1.0000 </r>
       <r>   -1.8481    1.0000 </r>
       <r>    3.3928    1.0000 </r>
       <r>    3.7145    1.0000 </r>
       <r>    8.0415    0.0000 </r>
       <r>    9.3237    0.0000 </r>
       <r>    9.9647    0.0000 </r>
       <r>   13.6217    0.0000 </r>
      </set>
      <set comment="kpoint 12">
       <r>   -5.2627    1.0000 </r>
       <r>   -2.2900    1.0000 </r>
       <r>    3.1986    1.0000 </r>
       <r>    3.8197    1.0000 </r>
       <r>    8.0186    0.0000 </r>
       <r>    9.3733    0.0000 </r>
       <r>    9.7730    0.0000 </r>
       <r>   14.2756    0.0000 </r>
      </set>
      <set comment="kpoint 13">
       <r>   -5.7885    1.0000 </r>
       <r>   -1.4641    1.0000 </r>
       <r>    3.1628    1.0000 </r>
       <r>    4.0654    1.0000 </r>
       <r>    8.1300    0.0000 </r>
       <r>    9.5701    0.0000 </r>
       <r>    9.6978    0.0000 </r>
       <r>   14.0068    0.0000 </r>
      </set>
      <set comment="kpoint 14">
       <r>   -6.5304    1.0000 </r>
       <r>    0.0087    1.0000 </r>
       <r>    3.3020    1.0000 </r>
       <r>    4.4181    1.0000 </r>
       <r>    8.3650    0.0000 </r>
       <r>    9.6358    0.0000 </r>
       <r>    9.7930    0.0000 </r>
       <r>   12.9234    0.0000 </r>
      </set>
      <set comment="kpoint 15">
       <r>   -7.1549    1.0000 </r>
       <r>    1.7278    1.0000 </r>
       <r>    3.6336    1.0000 </r>
       <r>    4.8114    1.0000 </r>
       <r>    8.6890    0.0000 </r>
       <r>    9.3390    0.0000 </r>
       <r>    9.6551    0.0000 </r>
       <r>   11.9944    0.0000 </r>
      </set>
      <set comment="kpoint 16">
       <r>   -7.5776    1.0000 </r>
       <r>    3.3472    1.0000 </r>
       <r>    4.2454    1.0000 </r>
       <r>    5.1039    1.0000 </r>
       <r>    8.9073    0.0000 </r>
       <r>    8.9789    0.0000 </r>
       <r>    9.0005    0.0000 </r>
       <r>   11.0736    0.0000 </r>
      </set>
      <set comment="kpoint 17">
       <r>   -7.2636    1.0000 </r>
       <r>    2.7657    1.0000 </r>
       <r>    3.8629    1.0000 </r>
       <r>    3.8629    1.0000 </r>
       <r>    7.5260    0.0000 </r>
       <r>   10.1984    0.0000 </r>
       <r>   10.7111    0.0000 </r>
       <r>   10.7111    0.0000 </r>
      </set>
      <set comment="kpoint 18">
       <r>   -6.8407    1.0000 </r>
       <r>    1.4826    1.0000 </r>
       <r>    3.4213    1.0000 </r>
       <r>    3.4835    1.0000 </r>
       <r>    7.5656    0.0000 </r>
       <r>    9.7634    0.0000 </r>
       <r>   10.9995    0.0000 </r>
       <r>   11.3393    0.0000 </r>
      </set>
      <set comment="kpoint 19">
       <r>   -6.2164    1.0000 </r>
       <r>   -0.0375    1.0000 </r>
       <r>    2.8519    1.0000 </r>
       <r>    3.2617    1.0000 </r>
       <r>    7.8169    0.0000 </r>
       <r>   10.1488    0.0000 </r>
       <r>   10.7702    0.0000 </r>
       <r>   11.4225    0.0000 </r>
      </set>
      <set comment="kpoint 20">
       <r>   -5.4729    1.0000 </r>
       <r>   -1.4072    1.0000 </r>
       <r>    2.3297    1.0000 </r>
       <r>    3.2206    1.0000 </r>
       <r>    7.8684    0.0000 </r>
       <r>   10.5234    0.0000 </r>
       <r>   11.1519    0.0000 </r>
       <r>   11.4377    0.0000 </r>
      </set>
      <set comment="kpoint 21">
       <r>   -4.9468    1.0000 </r>
       <r>   -2.1889    1.0000 </r>
       <r>    1.9601    1.0000 </r>
       <r>    3.3597    1.0000 </r>
       <r>    7.9803    0.0000 </r>
       <r>   10.3783    0.0000 </r>
       <r>   10.8476    0.0000 </r>
       <r>   13.1618    0.0000 </r>
      </set>
      <set comment="kpoint 22">
       <r>   -5.2575    1.0000 </r>
       <r>   -1.7362    1.0000 </r>
       <r>    1.7938    1.0000 </r>
       <r>    3.6607    1.0000 </r>
       <r>    8.2531    0.0000 </r>
       <r>   10.3585    0.0000 </r>
       <r>   10.6214    0.0000 </r>
       <r>   14.0118    0.0000 </r>
      </set>
      <set comment="kpoint 23">
       <r>   -5.9916    1.0000 </r>
       <r>   -0.5025    1.0000 </r>
       <r>    1.8905    1.0000 </r>
       <r>    4.0802    1.0000 </r>
       <r>    8.6520    0.0000 </r>
       <r>   10.3819    0.0000 </r>
       <r>   10.3971    0.0000 </r>
       <r>   12.5486    0.0000 </r>
      </set>
      <set comment="kpoint 24">
       <r>   -6.6658    1.0000 </r>
       <r>    0.8176    1.0000 </r>
       <r>    2.4286    1.0000 </r>
       <r>    4.5252    1.0000 </r>
       <r>    9.0166    0.0000 </r>
       <r>    9.8658    0.0000 </r>
       <r>   10.0505    0.0000 </r>
       <r>   11.8285    0.0000 </r>
      </set>
      <set comment="kpoint 25">
       <r>   -6.4893    1.0000 </r>
       <r>    0.9613    1.0000 </r>
       <r>    3.0668    1.0000 </r>
       <r>    3.0668    1.0000 </r>
       <r>    6.8916    0.0000 </r>
       <r>    8.8077    0.0000 </r>
       <r>   12.3896    0.0000 </r>
       <r>   12.3896    0.0000 </r>
      </set>
      <set comment="kpoint 26">
       <r>   -5.9271    1.0000 </r>
       <r>   -0.1020    1.0000 </r>
       <r>    2.5002    1.0000 </r>
       <r>    2.8083    1.0000 </r>
       <r>    7.0235    0.0000 </r>
       <r>    8.4968    0.0000 </r>
       <r>   12.6837    0.0000 </r>
       <r>   12.8822    0.0000 </r>
      </set>
      <set comment="kpoint 27">
       <r>   -5.2045    1.0000 </r>
       <r>   -1.2430    1.0000 </r>
       <r>    1.7220    1.0000 </r>
       <r>    2.7374    1.0000 </r>
       <r>    7.2451    0.0000 </r>
       <r>    9.2842    0.0000 </r>
       <r>   12.5025    0.0000 </r>
       <r>   12.7314    0.0000 </r>
      </set>
      <set comment="kpoint 28">
       <r>   -4.5326    1.0000 </r>
       <r>   -2.1269    1.0000 </r>
       <r>    1.0955    1.0000 </r>
       <r>    2.8586    1.0000 </r>
       <r>    7.3932    0.0000 </r>
       <r>   10.8412    0.0000 </r>
       <r>   12.3308    0.0000 </r>
       <r>   12.3876    0.0000 </r>
      </set>
      <set comment="kpoint 29">
       <r>   -4.5945    1.0000 </r>
       <r>   -2.0387    1.0000 </r>
       <r>    0.7835    1.0000 </r>
       <r>    3.1581    1.0000 </r>
       <r>    7.7034    0.0000 </r>
       <r>   11.9357    0.0000 </r>
       <r>   12.0346    0.0000 </r>
       <r>   12.9983    0.0000 </r>
      </set>
      <set comment="kpoint 30">
       <r>   -5.2896    1.0000 </r>
       <r>   -1.1990    1.0000 </r>
       <r>    0.9643    1.0000 </r>
       <r>    3.5962    1.0000 </r>
       <r>    8.1801    0.0000 </r>
       <r>   11.4247    0.0000 </r>
       <r>   11.6441    0.0000 </r>
       <r>   12.6401    0.0000 </r>
      </set>
      <set comment="kpoint 31">
       <r>   -5.4263    1.0000 </r>
       <r>   -0.8405    1.0000 </r>
       <r>    2.5036    1.0000 </r>
       <r>    2.5036    1.0000 </r>
       <r>    6.5130    0.0000 </r>
       <r>    7.6047    0.0000 </r>
       <r>   14.1592    0.0000 </r>
       <r>   14.1592    0.0000 </r>
      </set>
      <set comment="kpoint 32">
       <r>   -4.7434    1.0000 </r>
       <r>   -1.7457    1.0000 </r>
       <r>    1.9448    1.0000 </r>
       <r>    2.3856    1.0000 </r>
       <r>    6.7327    0.0000 </r>
       <r>    7.6073    0.0000 </r>
       <r>   14.4910    0.0000 </r>
       <r>   14.4978    0.0000 </r>
      </set>
      <set comment="kpoint 33">
       <r>   -4.0032    1.0000 </r>
       <r>   -2.5393    1.0000 </r>
       <r>    1.1147    1.0000 </r>
       <r>    2.4649    1.0000 </r>
       <r>    6.9202    0.0000 </r>
       <r>    8.8556    0.0000 </r>
       <r>   14.2007    0.0000 </r>
       <r>   14.3317    0.0000 </r>
      </set>
      <set comment="kpoint 34">
       <r>   -3.9352    1.0000 </r>
       <r>   -2.5716    1.0000 </r>
       <r>    0.5874    1.0000 </r>
       <r>    2.7331    1.0000 </r>
       <r>    7.2163    0.0000 </r>
       <r>   10.6829    0.0000 </r>
       <r>   13.5173    0.0000 </r>
       <r>   13.9885    0.0000 </r>
      </set>
      <set comment="kpoint 35">
       <r>   -4.1005    1.0000 </r>
       <r>   -2.5525    1.0000 </r>
       <r>    2.2151    1.0000 </r>
       <r>    2.2151    1.0000 </r>
       <r>    6.4739    0.0000 </r>
       <r>    6.8257    0.0000 </r>
       <r>   15.9566    0.0000 </r>
       <r>   15.9566    0.0000 </r>
      </set>
      <set comment="kpoint 36">
       <r>   -3.3899    1.0000 </r>
       <r>   -3.2642    1.0000 </r>
       <r>    1.7617    1.0000 </r>
       <r>    2.2424    1.0000 </r>
       <r>    6.6689    0.0000 </r>
       <r>    7.2715    0.0000 </r>
       <r>   15.8973    0.0000 </r>
       <r>   16.1517    0.0000 </r>
      </set>
      <set comment="kpoint 37">
       <r>   -7.1129    1.0000 </r>
       <r>    1.9777    1.0000 </r>
       <r>    3.3404    1.0000 </r>
       <r>    4.3949    1.0000 </r>
       <r>    8.2998    0.0000 </r>
       <r>    9.6860    0.0000 </r>
       <r>   10.4797    0.0000 </r>
       <r>   10.8846    0.0000 </r>
      </set>
      <set comment="kpoint 38">
       <r>   -6.5524    1.0000 </r>
       <r>    0.5164    1.0000 </r>
       <r>    2.7251    1.0000 </r>
       <r>    4.0507    1.0000 </r>
       <r>    8.6255    0.0000 </r>
       <r>    9.6316    0.0000 </r>
       <r>   10.8234    0.0000 </r>
       <r>   11.0117    0.0000 </r>
      </set>
      <set comment="kpoint 39">
       <r>   -5.8326    1.0000 </r>
       <r>   -0.9709    1.0000 </r>
       <r>    2.4380    1.0000 </r>
       <r>    3.6765    1.0000 </r>
       <r>    8.6643    0.0000 </r>
       <r>    9.3915    0.0000 </r>
       <r>   10.9467    0.0000 </r>
       <r>   11.9062    0.0000 </r>
      </set>
      <set comment="kpoint 40">
       <r>   -5.1621    1.0000 </r>
       <r>   -2.0545    1.0000 </r>
       <r>    2.3260    1.0000 </r>
       <r>    3.4456    1.0000 </r>
       <r>    8.6427    0.0000 </r>
       <r>    9.1640    0.0000 </r>
       <r>   10.8706    0.0000 </r>
       <r>   13.4690    0.0000 </r>
      </set>
      <set comment="kpoint 41">
       <r>   -6.3494    1.0000 </r>
       <r>    0.5365    1.0000 </r>
       <r>    2.5515    1.0000 </r>
       <r>    3.3106    1.0000 </r>
       <r>    7.6929    0.0000 </r>
       <r>    9.3369    0.0000 </r>
       <r>   11.1276    0.0000 </r>
       <r>   12.2578    0.0000 </r>
      </set>
      <set comment="kpoint 42">
       <r>   -5.6732    1.0000 </r>
       <r>   -0.6619    1.0000 </r>
       <r>    1.9273    1.0000 </r>
       <r>    2.9731    1.0000 </r>
       <r>    8.0809    0.0000 </r>
       <r>    9.7616    0.0000 </r>
       <r>   10.7956    0.0000 </r>
       <r>   12.6671    0.0000 </r>
      </set>
      <set comment="kpoint 43">
       <r>   -4.9367    1.0000 </r>
       <r>   -1.7760    1.0000 </r>
       <r>    1.5036    1.0000 </r>
       <r>    2.8034    1.0000 </r>
       <r>    8.2270    0.0000 </r>
       <r>   10.3382    0.0000 </r>
       <r>   11.2485    0.0000 </r>
       <r>   12.6169    0.0000 </r>
      </set>
      <set comment="kpoint 44">
       <r>   -4.6458    1.0000 </r>
       <r>   -2.1596    1.0000 </r>
       <r>    1.2509    1.0000 </r>
       <r>    2.9005    1.0000 </r>
       <r>    8.4548    0.0000 </r>
       <r>   10.0700    0.0000 </r>
       <r>   12.4832    0.0000 </r>
       <r>   13.0146    0.0000 </r>
      </set>
      <set comment="kpoint 45">
       <r>   -5.1991    1.0000 </r>
       <r>   -1.4010    1.0000 </r>
       <r>    1.2437    1.0000 </r>
       <r>    3.2215    1.0000 </r>
       <r>    8.8428    0.0000 </r>
       <r>    9.8716    0.0000 </r>
       <r>   11.7280    0.0000 </r>
       <r>   12.3925    0.0000 </r>
      </set>
      <set comment="kpoint 46">
       <r>   -5.9388    1.0000 </r>
       <r>   -0.3143    1.0000 </r>
       <r>    1.6641    1.0000 </r>
       <r>    3.6687    1.0000 </r>
       <r>    9.3207    0.0000 </r>
       <r>    9.4308    0.0000 </r>
       <r>   10.7610    0.0000 </r>
       <r>   11.9271    0.0000 </r>
      </set>
      <set comment="kpoint 47">
       <r>   -5.3068    1.0000 </r>
       <r>   -0.9929    1.0000 </r>
       <r>    2.0227    1.0000 </r>
       <r>    2.4381    1.0000 </r>
       <r>    7.3119    0.0000 </r>
       <r>    8.2326    0.0000 </r>
       <r>   12.6022    0.0000 </r>
       <r>   14.1195    0.0000 </r>
      </set>
      <set comment="kpoint 48">
       <r>   -4.5598    1.0000 </r>
       <r>   -1.9056    1.0000 </r>
       <r>    1.3332    1.0000 </r>
       <r>    2.2481    1.0000 </r>
       <r>    7.6846    0.0000 </r>
       <r>    9.0875    0.0000 </r>
       <r>   12.2248    0.0000 </r>
       <r>   14.5002    0.0000 </r>
      </set>
      <set comment="kpoint 49">
       <r>   -4.0464    1.0000 </r>
       <r>   -2.4549    1.0000 </r>
       <r>    0.7656    1.0000 </r>
       <r>    2.3756    1.0000 </r>
       <r>    7.9143    0.0000 </r>
       <r>   10.7428    0.0000 </r>
       <r>   11.9199    0.0000 </r>
       <r>   13.6087    0.0000 </r>
      </set>
      <set comment="kpoint 50">
       <r>   -4.4709    1.0000 </r>
       <r>   -2.0107    1.0000 </r>
       <r>    0.6519    1.0000 </r>
       <r>    2.7282    1.0000 </r>
       <r>    8.3107    0.0000 </r>
       <r>   11.2089    0.0000 </r>
       <r>   11.9995    0.0000 </r>
       <r>   12.9483    0.0000 </r>
      </set>
      <set comment="kpoint 51">
       <r>   -4.0203    1.0000 </r>
       <r>   -2.5505    1.0000 </r>
       <r>    1.8069    1.0000 </r>
       <r>    1.9361    1.0000 </r>
       <r>    7.2418    0.0000 </r>
       <r>    7.5352    0.0000 </r>
       <r>   14.2261    0.0000 </r>
       <r>   15.7814    0.0000 </r>
      </set>
      <set comment="kpoint 52">
       <r>   -3.4662    1.0000 </r>
       <r>   -3.0436    1.0000 </r>
       <r>    1.1052    1.0000 </r>
       <r>    2.0177    1.0000 </r>
       <r>    7.5438    0.0000 </r>
       <r>    8.8668    0.0000 </r>
       <r>   13.7487    0.0000 </r>
       <r>   13.9781    0.0000 </r>
      </set>
      <set comment="kpoint 53">
       <r>   -4.9669    1.0000 </r>
       <r>   -1.4286    1.0000 </r>
       <r>    1.2114    1.0000 </r>
       <r>    2.4812    1.0000 </r>
       <r>    9.0799    0.0000 </r>
       <r>    9.7358    0.0000 </r>
       <r>   10.4205    0.0000 </r>
       <r>   13.9940    0.0000 </r>
      </set>
      <set comment="kpoint 54">
       <r>   -4.2707    1.0000 </r>
       <r>   -2.2041    1.0000 </r>
       <r>    0.9031    1.0000 </r>
       <r>    2.1360    1.0000 </r>
       <r>    9.4566    0.0000 </r>
       <r>    9.8676    0.0000 </r>
       <r>   11.2325    0.0000 </r>
       <r>   13.2173    0.0000 </r>
      </set>
      <set comment="kpoint 55">
       <r>   -3.8172    1.0000 </r>
       <r>   -2.5999    1.0000 </r>
       <r>    1.1554    1.0000 </r>
       <r>    1.5724    1.0000 </r>
       <r>    8.9872    0.0000 </r>
       <r>    9.2039    0.0000 </r>
       <r>   11.7908    0.0000 </r>
       <r>   13.4721    0.0000 </r>
      </set>
      <set comment="kpoint 56">
       <r>   -3.5985    1.0000 </r>
       <r>   -2.7814    1.0000 </r>
       <r>    0.8529    1.0000 </r>
       <r>    1.6134    1.0000 </r>
       <r>    9.3519    0.0000 </r>
       <r>   10.6875    0.0000 </r>
       <r>   11.5491    0.0000 </r>
       <r>   11.5892    0.0000 </r>
      </set>
     </set>
    </set>
   </array>
  </eigenvalues>
  <separator name="orbital magnetization" >
   <v name="MAGDIPOLOUT">      0.00000000      0.00000000      0.00000000</v>
  </separator>
  <dos>
   <i name="efermi">      5.26759826 </i>
   <total>
    <array>
     <dimension dim="1">gridpoints</dimension>
     <dimension dim="2">spin</dimension>
     <field>energy</field>
     <field>total</field>
     <field>integrated</field>
     <set>
      <set comment="spin 1">
       <r>    -9.0931     0.0000     0.0000 </r>
       <r>    -9.0799     0.0000     0.0000 </r>
       <r>    -9.0667     0.0000     0.0000 </r>
       <r>    -9.0534     0.0000     0.0000 </r>
       <r>    -9.0402     0.0000     0.0000 </r>
       <r>    -9.0270     0.0000     0.0000 </r>
       <r>    -9.0138     0.0000     0.0000 </r>
       <r>    -9.0005     0.0000     0.0000 </r>
       <r>    -8.9873     0.0000     0.0000 </r>
       <r>    -8.9741     0.0000     0.0000 </r>
       <r>    -8.9609     0.0000     0.0000 </r>
       <r>    -8.9476     0.0000     0.0000 </r>
       <r>    -8.9344     0.0000     0.0000 </r>
       <r>    -8.9212     0.0000     0.0000 </r>
       <r>    -8.9080     0.0000     0.0000 </r>
       <r>    -8.8947     0.0000     0.0000 </r>
       <r>    -8.8815     0.0000     0.0000 </r>
       <r>    -8.8683     0.0000     0.0000 </r>
       <r>    -8.8551     0.0000     0.0000 </r>
       <r>    -8.8419     0.0000     0.0000 </r>
       <r>    -8.8286     0.0000     0.0000 </r>
       <r>    -8.8154     0.0000     0.0000 </r>
       <r>    -8.8022     0.0000     0.0000 </r>
       <r>    -8.7890     0.0000     0.0000 </r>
       <r>    -8.7757     0.0000     0.0000 </r>
       <r>    -8.7625     0.0000     0.0000 </r>
       <r>    -8.7493     0.0000     0.0000 </r>
       <r>    -8.7361     0.0000     0.0000 </r>
       <r>    -8.7228     0.0000     0.0000 </r>
       <r>    -8.7096     0.0000     0.0000 </r>
       <r>    -8.6964     0.0000     0.0000 </r>
       <r>    -8.6832     0.0000     0.0000 </r>
       <r>    -8.6699     0.0000     0.0000 </r>
       <r>    -8.6567     0.0000     0.0000 </r>
       <r>    -8.6435     0.0000     0.0000 </r>
       <r>    -8.6303     0.0000     0.0000 </r>
       <r>    -8.6171     0.0000     0.0000 </r>
       <r>    -8.6038     0.0000     0.0000 </r>
       <r>    -8.5906     0.0000     0.0000 </r>
       <r>    -8.5774     0.0000     0.0000 </r>
       <r>    -8.5642     0.0000     0.0000 </r>
       <r>    -8.5509     0.0000     0.0000 </r>
       <r>    -8.5377     0.0000     0.0000 </r>
       <r>    -8.5245     0.0000     0.0000 </r>
       <r>    -8.5113     0.0000     0.0000 </r>
       <r>    -8.4980     0.0000     0.0000 </r>
       <r>    -8.4848     0.0000     0.0000 </r>
       <r>    -8.4716     0.0000     0.0000 </r>
       <r>    -8.4584     0.0000     0.0000 </r>
       <r>    -8.4451     0.0000     0.0000 </r>
       <r>    -8.4319     0.0000     0.0000 </r>
       <r>    -8.4187     0.0000     0.0000 </r>
       <r>    -8.4055     0.0000     0.0000 </r>
       <r>    -8.3923     0.0000     0.0000 </r>
       <r>    -8.3790     0.0000     0.0000 </r>
       <r>    -8.3658     0.0000     0.0000 </r>
       <r>    -8.3526     0.0000     0.0000 </r>
       <r>    -8.3394     0.0000     0.0000 </r>
       <r>    -8.3261     0.0000     0.0000 </r>
       <r>    -8.3129     0.0000     0.0000 </r>
       <r>    -8.2997     0.0000     0.0000 </r>
       <r>    -8.2865     0.0000     0.0000 </r>
       <r>    -8.2732     0.0000     0.0000 </r>
       <r>    -8.2600     0.0000     0.0000 </r>
       <r>    -8.2468     0.0000     0.0000 </r>
       <r>    -8.2336     0.0000     0.0000 </r>
       <r>    -8.2204     0.0000     0.0000 </r>
       <r>    -8.2071     0.0000     0.0000 </r>
       <r>    -8.1939     0.0000     0.0000 </r>
       <r>    -8.1807     0.0000     0.0000 </r>
       <r>    -8.1675     0.0000     0.0000 </r>
       <r>    -8.1542     0.0000     0.0000 </r>
       <r>    -8.1410     0.0000     0.0000 </r>
       <r>    -8.1278     0.0000     0.0000 </r>
       <r>    -8.1146     0.0000     0.0000 </r>
       <r>    -8.1013     0.0000     0.0000 </r>
       <r>    -8.0881     0.0000     0.0000 </r>
       <r>    -8.0749     0.0000     0.0000 </r>
       <r>    -8.0617     0.0000     0.0000 </r>
       <r>    -8.0484     0.0000     0.0000 </r>
       <r>    -8.0352     0.0000     0.0000 </r>
       <r>    -8.0220     0.0000     0.0000 </r>
       <r>    -8.0088     0.0000     0.0000 </r>
       <r>    -7.9956     0.0000     0.0000 </r>
       <r>    -7.9823     0.0000     0.0000 </r>
       <r>    -7.9691     0.0000     0.0000 </r>
       <r>    -7.9559     0.0000     0.0000 </r>
       <r>    -7.9427     0.0000     0.0000 </r>
       <r>    -7.9294     0.0000     0.0000 </r>
       <r>    -7.9162     0.0000     0.0000 </r>
       <r>    -7.9030     0.0000     0.0000 </r>
       <r>    -7.8898     0.0000     0.0000 </r>
       <r>    -7.8765     0.0017     0.0000 </r>
       <r>    -7.8633     0.0063     0.0001 </r>
       <r>    -7.8501     0.0138     0.0002 </r>
       <r>    -7.8369     0.0241     0.0004 </r>
       <r>    -7.8236     0.0373     0.0008 </r>
       <r>    -7.8104     0.0534     0.0014 </r>
       <r>    -7.7972     0.0724     0.0023 </r>
       <r>    -7.7840     0.0942     0.0034 </r>
       <r>    -7.7708     0.1120     0.0048 </r>
       <r>    -7.7575     0.1016     0.0062 </r>
       <r>    -7.7443     0.0978     0.0075 </r>
       <r>    -7.7311     0.1005     0.0088 </r>
       <r>    -7.7179     0.1054     0.0101 </r>
       <r>    -7.7046     0.1105     0.0116 </r>
       <r>    -7.6914     0.1156     0.0131 </r>
       <r>    -7.6782     0.1209     0.0146 </r>
       <r>    -7.6650     0.1263     0.0163 </r>
       <r>    -7.6517     0.1317     0.0180 </r>
       <r>    -7.6385     0.1373     0.0197 </r>
       <r>    -7.6253     0.1429     0.0216 </r>
       <r>    -7.6121     0.1487     0.0235 </r>
       <r>    -7.5988     0.1546     0.0255 </r>
       <r>    -7.5856     0.1605     0.0276 </r>
       <r>    -7.5724     0.1665     0.0298 </r>
       <r>    -7.5592     0.1720     0.0320 </r>
       <r>    -7.5460     0.1768     0.0343 </r>
       <r>    -7.5327     0.1809     0.0367 </r>
       <r>    -7.5195     0.1843     0.0391 </r>
       <r>    -7.5063     0.1871     0.0416 </r>
       <r>    -7.4931     0.1891     0.0440 </r>
       <r>    -7.4798     0.1905     0.0466 </r>
       <r>    -7.4666     0.1912     0.0491 </r>
       <r>    -7.4534     0.1921     0.0516 </r>
       <r>    -7.4402     0.1941     0.0542 </r>
       <r>    -7.4269     0.1969     0.0568 </r>
       <r>    -7.4137     0.2002     0.0594 </r>
       <r>    -7.4005     0.2035     0.0620 </r>
       <r>    -7.3873     0.2068     0.0648 </r>
       <r>    -7.3740     0.2102     0.0675 </r>
       <r>    -7.3608     0.2135     0.0703 </r>
       <r>    -7.3476     0.2169     0.0732 </r>
       <r>    -7.3344     0.2203     0.0761 </r>
       <r>    -7.3212     0.2238     0.0790 </r>
       <r>    -7.3079     0.2272     0.0820 </r>
       <r>    -7.2947     0.2307     0.0850 </r>
       <r>    -7.2815     0.2342     0.0881 </r>
       <r>    -7.2683     0.2377     0.0912 </r>
       <r>    -7.2550     0.2412     0.0944 </r>
       <r>    -7.2418     0.2448     0.0976 </r>
       <r>    -7.2286     0.2483     0.1008 </r>
       <r>    -7.2154     0.2519     0.1041 </r>
       <r>    -7.2021     0.2556     0.1075 </r>
       <r>    -7.1889     0.2592     0.1109 </r>
       <r>    -7.1757     0.2629     0.1143 </r>
       <r>    -7.1625     0.2666     0.1179 </r>
       <r>    -7.1492     0.2689     0.1214 </r>
       <r>    -7.1360     0.2696     0.1250 </r>
       <r>    -7.1228     0.2711     0.1285 </r>
       <r>    -7.1096     0.2732     0.1321 </r>
       <r>    -7.0964     0.2755     0.1358 </r>
       <r>    -7.0831     0.2779     0.1394 </r>
       <r>    -7.0699     0.2802     0.1431 </r>
       <r>    -7.0567     0.2825     0.1468 </r>
       <r>    -7.0435     0.2847     0.1506 </r>
       <r>    -7.0302     0.2870     0.1544 </r>
       <r>    -7.0170     0.2893     0.1582 </r>
       <r>    -7.0038     0.2915     0.1620 </r>
       <r>    -6.9906     0.2937     0.1659 </r>
       <r>    -6.9773     0.2960     0.1698 </r>
       <r>    -6.9641     0.2982     0.1737 </r>
       <r>    -6.9509     0.3004     0.1777 </r>
       <r>    -6.9377     0.3027     0.1816 </r>
       <r>    -6.9244     0.3050     0.1857 </r>
       <r>    -6.9112     0.3074     0.1897 </r>
       <r>    -6.8980     0.3099     0.1938 </r>
       <r>    -6.8848     0.3124     0.1979 </r>
       <r>    -6.8716     0.3150     0.2021 </r>
       <r>    -6.8583     0.3176     0.2062 </r>
       <r>    -6.8451     0.3202     0.2105 </r>
       <r>    -6.8319     0.3230     0.2147 </r>
       <r>    -6.8187     0.3258     0.2190 </r>
       <r>    -6.8054     0.3286     0.2233 </r>
       <r>    -6.7922     0.3314     0.2277 </r>
       <r>    -6.7790     0.3343     0.2321 </r>
       <r>    -6.7658     0.3371     0.2365 </r>
       <r>    -6.7525     0.3400     0.2410 </r>
       <r>    -6.7393     0.3428     0.2455 </r>
       <r>    -6.7261     0.3457     0.2501 </r>
       <r>    -6.7129     0.3486     0.2547 </r>
       <r>    -6.6996     0.3515     0.2593 </r>
       <r>    -6.6864     0.3544     0.2640 </r>
       <r>    -6.6732     0.3573     0.2687 </r>
       <r>    -6.6600     0.3602     0.2734 </r>
       <r>    -6.6468     0.3630     0.2782 </r>
       <r>    -6.6335     0.3656     0.2830 </r>
       <r>    -6.6203     0.3680     0.2879 </r>
       <r>    -6.6071     0.3702     0.2927 </r>
       <r>    -6.5939     0.3722     0.2976 </r>
       <r>    -6.5806     0.3741     0.3026 </r>
       <r>    -6.5674     0.3758     0.3075 </r>
       <r>    -6.5542     0.3773     0.3125 </r>
       <r>    -6.5410     0.3791     0.3175 </r>
       <r>    -6.5277     0.3813     0.3225 </r>
       <r>    -6.5145     0.3837     0.3276 </r>
       <r>    -6.5013     0.3860     0.3327 </r>
       <r>    -6.4881     0.3884     0.3378 </r>
       <r>    -6.4749     0.3908     0.3430 </r>
       <r>    -6.4616     0.3932     0.3481 </r>
       <r>    -6.4484     0.3956     0.3534 </r>
       <r>    -6.4352     0.3980     0.3586 </r>
       <r>    -6.4220     0.4004     0.3639 </r>
       <r>    -6.4087     0.4028     0.3692 </r>
       <r>    -6.3955     0.4053     0.3745 </r>
       <r>    -6.3823     0.4078     0.3799 </r>
       <r>    -6.3691     0.4102     0.3853 </r>
       <r>    -6.3558     0.4127     0.3908 </r>
       <r>    -6.3426     0.4153     0.3962 </r>
       <r>    -6.3294     0.4178     0.4017 </r>
       <r>    -6.3162     0.4203     0.4073 </r>
       <r>    -6.3029     0.4229     0.4129 </r>
       <r>    -6.2897     0.4254     0.4185 </r>
       <r>    -6.2765     0.4280     0.4241 </r>
       <r>    -6.2633     0.4307     0.4298 </r>
       <r>    -6.2501     0.4334     0.4355 </r>
       <r>    -6.2368     0.4361     0.4413 </r>
       <r>    -6.2236     0.4389     0.4470 </r>
       <r>    -6.2104     0.4418     0.4529 </r>
       <r>    -6.1972     0.4447     0.4587 </r>
       <r>    -6.1839     0.4476     0.4646 </r>
       <r>    -6.1707     0.4505     0.4706 </r>
       <r>    -6.1575     0.4535     0.4765 </r>
       <r>    -6.1443     0.4565     0.4826 </r>
       <r>    -6.1310     0.4595     0.4886 </r>
       <r>    -6.1178     0.4625     0.4947 </r>
       <r>    -6.1046     0.4656     0.5008 </r>
       <r>    -6.0914     0.4686     0.5070 </r>
       <r>    -6.0781     0.4717     0.5132 </r>
       <r>    -6.0649     0.4748     0.5195 </r>
       <r>    -6.0517     0.4780     0.5258 </r>
       <r>    -6.0385     0.4811     0.5321 </r>
       <r>    -6.0253     0.4843     0.5385 </r>
       <r>    -6.0120     0.4875     0.5449 </r>
       <r>    -5.9988     0.4907     0.5514 </r>
       <r>    -5.9856     0.4936     0.5579 </r>
       <r>    -5.9724     0.4964     0.5645 </r>
       <r>    -5.9591     0.4993     0.5711 </r>
       <r>    -5.9459     0.5023     0.5777 </r>
       <r>    -5.9327     0.5054     0.5843 </r>
       <r>    -5.9195     0.5085     0.5910 </r>
       <r>    -5.9062     0.5117     0.5978 </r>
       <r>    -5.8930     0.5149     0.6046 </r>
       <r>    -5.8798     0.5182     0.6114 </r>
       <r>    -5.8666     0.5215     0.6183 </r>
       <r>    -5.8533     0.5248     0.6252 </r>
       <r>    -5.8401     0.5282     0.6322 </r>
       <r>    -5.8269     0.5316     0.6392 </r>
       <r>    -5.8137     0.5352     0.6462 </r>
       <r>    -5.8005     0.5390     0.6533 </r>
       <r>    -5.7872     0.5430     0.6605 </r>
       <r>    -5.7740     0.5472     0.6677 </r>
       <r>    -5.7608     0.5516     0.6749 </r>
       <r>    -5.7476     0.5560     0.6823 </r>
       <r>    -5.7343     0.5606     0.6897 </r>
       <r>    -5.7211     0.5653     0.6971 </r>
       <r>    -5.7079     0.5701     0.7046 </r>
       <r>    -5.6947     0.5751     0.7122 </r>
       <r>    -5.6814     0.5802     0.7198 </r>
       <r>    -5.6682     0.5854     0.7275 </r>
       <r>    -5.6550     0.5908     0.7353 </r>
       <r>    -5.6418     0.5963     0.7431 </r>
       <r>    -5.6285     0.6018     0.7511 </r>
       <r>    -5.6153     0.6076     0.7591 </r>
       <r>    -5.6021     0.6134     0.7671 </r>
       <r>    -5.5889     0.6193     0.7753 </r>
       <r>    -5.5757     0.6253     0.7835 </r>
       <r>    -5.5624     0.6315     0.7918 </r>
       <r>    -5.5492     0.6379     0.8002 </r>
       <r>    -5.5360     0.6451     0.8087 </r>
       <r>    -5.5228     0.6533     0.8173 </r>
       <r>    -5.5095     0.6625     0.8260 </r>
       <r>    -5.4963     0.6726     0.8348 </r>
       <r>    -5.4831     0.6837     0.8438 </r>
       <r>    -5.4699     0.6997     0.8529 </r>
       <r>    -5.4566     0.7204     0.8623 </r>
       <r>    -5.4434     0.7388     0.8719 </r>
       <r>    -5.4302     0.7548     0.8818 </r>
       <r>    -5.4170     0.7685     0.8919 </r>
       <r>    -5.4037     0.7799     0.9021 </r>
       <r>    -5.3905     0.7890     0.9125 </r>
       <r>    -5.3773     0.7957     0.9230 </r>
       <r>    -5.3641     0.8002     0.9335 </r>
       <r>    -5.3509     0.8023     0.9441 </r>
       <r>    -5.3376     0.8021     0.9548 </r>
       <r>    -5.3244     0.7996     0.9653 </r>
       <r>    -5.3112     0.7947     0.9759 </r>
       <r>    -5.2980     0.7876     0.9864 </r>
       <r>    -5.2847     0.7781     0.9967 </r>
       <r>    -5.2715     0.7666     1.0069 </r>
       <r>    -5.2583     0.7683     1.0170 </r>
       <r>    -5.2451     0.8014     1.0274 </r>
       <r>    -5.2318     0.8264     1.0382 </r>
       <r>    -5.2186     0.8435     1.0492 </r>
       <r>    -5.2054     0.8525     1.0604 </r>
       <r>    -5.1922     0.8532     1.0717 </r>
       <r>    -5.1789     0.8447     1.0830 </r>
       <r>    -5.1657     0.8268     1.0940 </r>
       <r>    -5.1525     0.8119     1.1048 </r>
       <r>    -5.1393     0.8009     1.1155 </r>
       <r>    -5.1261     0.7907     1.1260 </r>
       <r>    -5.1128     0.7812     1.1364 </r>
       <r>    -5.0996     0.7724     1.1467 </r>
       <r>    -5.0864     0.7643     1.1568 </r>
       <r>    -5.0732     0.7568     1.1669 </r>
       <r>    -5.0599     0.7501     1.1769 </r>
       <r>    -5.0467     0.7441     1.1867 </r>
       <r>    -5.0335     0.7387     1.1965 </r>
       <r>    -5.0203     0.7341     1.2063 </r>
       <r>    -5.0070     0.7302     1.2160 </r>
       <r>    -4.9938     0.7269     1.2256 </r>
       <r>    -4.9806     0.7244     1.2352 </r>
       <r>    -4.9674     0.7225     1.2448 </r>
       <r>    -4.9542     0.7213     1.2543 </r>
       <r>    -4.9409     0.7203     1.2638 </r>
       <r>    -4.9277     0.7171     1.2733 </r>
       <r>    -4.9145     0.7136     1.2828 </r>
       <r>    -4.9013     0.7101     1.2922 </r>
       <r>    -4.8880     0.7066     1.3016 </r>
       <r>    -4.8748     0.7030     1.3109 </r>
       <r>    -4.8616     0.6995     1.3202 </r>
       <r>    -4.8484     0.6959     1.3294 </r>
       <r>    -4.8351     0.6922     1.3386 </r>
       <r>    -4.8219     0.6886     1.3477 </r>
       <r>    -4.8087     0.6849     1.3568 </r>
       <r>    -4.7955     0.6812     1.3658 </r>
       <r>    -4.7822     0.6775     1.3748 </r>
       <r>    -4.7690     0.6737     1.3837 </r>
       <r>    -4.7558     0.6699     1.3926 </r>
       <r>    -4.7426     0.6661     1.4015 </r>
       <r>    -4.7294     0.6623     1.4102 </r>
       <r>    -4.7161     0.6585     1.4190 </r>
       <r>    -4.7029     0.6546     1.4277 </r>
       <r>    -4.6897     0.6507     1.4363 </r>
       <r>    -4.6765     0.6468     1.4449 </r>
       <r>    -4.6632     0.6428     1.4534 </r>
       <r>    -4.6500     0.6388     1.4619 </r>
       <r>    -4.6368     0.6364     1.4703 </r>
       <r>    -4.6236     0.6333     1.4787 </r>
       <r>    -4.6103     0.6287     1.4870 </r>
       <r>    -4.5971     0.6225     1.4953 </r>
       <r>    -4.5839     0.6160     1.5035 </r>
       <r>    -4.5707     0.6106     1.5116 </r>
       <r>    -4.5574     0.6066     1.5197 </r>
       <r>    -4.5442     0.6037     1.5277 </r>
       <r>    -4.5310     0.6018     1.5356 </r>
       <r>    -4.5178     0.6002     1.5436 </r>
       <r>    -4.5046     0.5984     1.5515 </r>
       <r>    -4.4913     0.5963     1.5594 </r>
       <r>    -4.4781     0.5940     1.5673 </r>
       <r>    -4.4649     0.5914     1.5751 </r>
       <r>    -4.4517     0.5887     1.5829 </r>
       <r>    -4.4384     0.5859     1.5907 </r>
       <r>    -4.4252     0.5830     1.5984 </r>
       <r>    -4.4120     0.5799     1.6061 </r>
       <r>    -4.3988     0.5768     1.6137 </r>
       <r>    -4.3855     0.5735     1.6213 </r>
       <r>    -4.3723     0.5702     1.6289 </r>
       <r>    -4.3591     0.5667     1.6364 </r>
       <r>    -4.3459     0.5631     1.6439 </r>
       <r>    -4.3326     0.5594     1.6513 </r>
       <r>    -4.3194     0.5556     1.6587 </r>
       <r>    -4.3062     0.5517     1.6660 </r>
       <r>    -4.2930     0.5476     1.6733 </r>
       <r>    -4.2798     0.5435     1.6805 </r>
       <r>    -4.2665     0.5391     1.6876 </r>
       <r>    -4.2533     0.5343     1.6947 </r>
       <r>    -4.2401     0.5296     1.7018 </r>
       <r>    -4.2269     0.5251     1.7088 </r>
       <r>    -4.2136     0.5207     1.7157 </r>
       <r>    -4.2004     0.5165     1.7225 </r>
       <r>    -4.1872     0.5123     1.7293 </r>
       <r>    -4.1740     0.5084     1.7361 </r>
       <r>    -4.1607     0.5045     1.7428 </r>
       <r>    -4.1475     0.5008     1.7494 </r>
       <r>    -4.1343     0.4973     1.7560 </r>
       <r>    -4.1211     0.4938     1.7626 </r>
       <r>    -4.1078     0.4905     1.7691 </r>
       <r>    -4.0946     0.4876     1.7755 </r>
       <r>    -4.0814     0.4850     1.7820 </r>
       <r>    -4.0682     0.4825     1.7884 </r>
       <r>    -4.0550     0.4802     1.7947 </r>
       <r>    -4.0417     0.4767     1.8011 </r>
       <r>    -4.0285     0.4709     1.8073 </r>
       <r>    -4.0153     0.4658     1.8135 </r>
       <r>    -4.0021     0.4632     1.8197 </r>
       <r>    -3.9888     0.4718     1.8258 </r>
       <r>    -3.9756     0.4769     1.8321 </r>
       <r>    -3.9624     0.4788     1.8384 </r>
       <r>    -3.9492     0.4773     1.8448 </r>
       <r>    -3.9359     0.4724     1.8510 </r>
       <r>    -3.9227     0.4656     1.8573 </r>
       <r>    -3.9095     0.4587     1.8634 </r>
       <r>    -3.8963     0.4515     1.8694 </r>
       <r>    -3.8830     0.4442     1.8753 </r>
       <r>    -3.8698     0.4368     1.8811 </r>
       <r>    -3.8566     0.4291     1.8869 </r>
       <r>    -3.8434     0.4213     1.8925 </r>
       <r>    -3.8302     0.4134     1.8980 </r>
       <r>    -3.8169     0.4055     1.9034 </r>
       <r>    -3.8037     0.4095     1.9088 </r>
       <r>    -3.7905     0.4120     1.9142 </r>
       <r>    -3.7773     0.4128     1.9197 </r>
       <r>    -3.7640     0.4120     1.9251 </r>
       <r>    -3.7508     0.4096     1.9306 </r>
       <r>    -3.7376     0.4056     1.9360 </r>
       <r>    -3.7244     0.3999     1.9413 </r>
       <r>    -3.7111     0.3927     1.9465 </r>
       <r>    -3.6979     0.3838     1.9517 </r>
       <r>    -3.6847     0.3733     1.9567 </r>
       <r>    -3.6715     0.3611     1.9615 </r>
       <r>    -3.6582     0.3474     1.9662 </r>
       <r>    -3.6450     0.3320     1.9707 </r>
       <r>    -3.6318     0.3150     1.9750 </r>
       <r>    -3.6186     0.2964     1.9790 </r>
       <r>    -3.6054     0.2762     1.9828 </r>
       <r>    -3.5921     0.2871     1.9873 </r>
       <r>    -3.5789     0.1548     1.9895 </r>
       <r>    -3.5657     0.1369     1.9914 </r>
       <r>    -3.5525     0.1198     1.9931 </r>
       <r>    -3.5392     0.1034     1.9946 </r>
       <r>    -3.5260     0.0877     1.9959 </r>
       <r>    -3.5128     0.0728     1.9969 </r>
       <r>    -3.4996     0.0585     1.9978 </r>
       <r>    -3.4863     0.0451     1.9985 </r>
       <r>    -3.4731     0.0323     1.9990 </r>
       <r>    -3.4599     0.0227     1.9993 </r>
       <r>    -3.4467     0.0167     1.9996 </r>
       <r>    -3.4335     0.0115     1.9998 </r>
[...]
       </set>
       <set comment="band 5">
        <r>  0.0599  0.0235  0.0573  0.0048  0.0000  0.0000  0.0000  0.0000  0.0000 </r>
        <r>  0.0599  0.0235  0.0573  0.0048  0.0000  0.0000  0.0000  0.0000  0.0000 </r>
       </set>
       <set comment="band 6">
        <r>  0.0239  0.0293  0.0337  0.0488  0.0000  0.0000  0.0000  0.0000  0.0000 </r>
        <r>  0.0239  0.0293  0.0337  0.0488  0.0000  0.0000  0.0000  0.0000  0.0000 </r>
       </set>
       <set comment="band 7">
        <r>  0.0446  0.0264  0.0118  0.0195  0.0000  0.0000  0.0000  0.0000  0.0000 </r>
        <r>  0.0446  0.0264  0.0118  0.0195  0.0000  0.0000  0.0000  0.0000  0.0000 </r>
       </set>
       <set comment="band 8">
        <r>  0.0106  0.0507  0.0695  0.0185  0.0000  0.0000  0.0000  0.0000  0.0000 </r>
        <r>  0.0106  0.0507  0.0695  0.0185  0.0000  0.0000  0.0000  0.0000  0.0000 </r>
       </set>
      </set>
      <set comment="kpoint 47">
       <set comment="band 1">
        <r>  0.2076  0.0007  0.0234  0.0007  0.0000  0.0000  0.0000  0.0000  0.0000 </r>
        <r>  0.2076  0.0007  0.0234  0.0007  0.0000  0.0000  0.0000  0.0000  0.0000 </r>
       </set>
       <set comment="band 2">
        <r>  0.1809  0.0021  0.0610  0.0088  0.0000  0.0000  0.0000  0.0000  0.0000 </r>
        <r>  0.1809  0.0021  0.0610  0.0088  0.0000  0.0000  0.0000  0.0000  0.0000 </r>
       </set>
       <set comment="band 3">
        <r>  0.0060  0.0695  0.0095  0.0990  0.0000  0.0000  0.0000  0.0000  0.0000 </r>
        <r>  0.0060  0.0695  0.0095  0.0990  0.0000  0.0000  0.0000  0.0000  0.0000 </r>
       </set>
       <set comment="band 4">
        <r>  0.0005  0.1047  0.0179  0.0661  0.0000  0.0000  0.0000  0.0000  0.0000 </r>
        <r>  0.0005  0.1047  0.0179  0.0661  0.0000  0.0000  0.0000  0.0000  0.0000 </r>
       </set>
       <set comment="band 5">
        <r>  0.0432  0.0147  0.0428  0.0139  0.0000  0.0000  0.0000  0.0000  0.0000 </r>
        <r>  0.0432  0.0147  0.0428  0.0139  0.0000  0.0000  0.0000  0.0000  0.0000 </r>
       </set>
       <set comment="band 6">
        <r>  0.0420  0.0118  0.0238  0.0057  0.0000  0.0000  0.0000  0.0000  0.0000 </r>
        <r>  0.0420  0.0118  0.0238  0.0057  0.0000  0.0000  0.0000  0.0000  0.0000 </r>
       </set>
       <set comment="band 7">
        <r>  0.0291  0.0645  0.0176  0.0442  0.0000  0.0000  0.0000  0.0000  0.0000 </r>
        <r>  0.0291  0.0645  0.0176  0.0442  0.0000  0.0000  0.0000  0.0000  0.0000 </r>
       </set>
       <set comment="band 8">
        <r>  0.0014  0.0576  0.0048  0.0968  0.0000  0.0000  0.0000  0.0000  0.0000 </r>
        <r>  0.0014  0.0576  0.0048  0.0968  0.0000  0.0000  0.0000  0.0000  0.0000 </r>
       </set>
      </set>
      <set comment="kpoint 48">
       <set comment="band 1">
        <r>  0.2085  0.0011  0.0265  0.0027  0.0000  0.0000  0.0000  0.0000  0.0000 </r>
        <r>  0.2085  0.0011  0.0265  0.0027  0.0000  0.0000  0.0000  0.0000  0.0000 </r>
       </set>
       <set comment="band 2">
        <r>  0.1872  0.0037  0.0448  0.0134  0.0000  0.0000  0.0000  0.0000  0.0000 </r>
        <r>  0.1872  0.0037  0.0448  0.0134  0.0000  0.0000  0.0000  0.0000  0.0000 </r>
       </set>
       <set comment="band 3">
        <r>  0.0072  0.0636  0.0302  0.0700  0.0000  0.0000  0.0000  0.0000  0.0000 </r>
        <r>  0.0072  0.0636  0.0302  0.0700  0.0000  0.0000  0.0000  0.0000  0.0000 </r>
       </set>
       <set comment="band 4">
        <r>  0.0008  0.0946  0.0150  0.0759  0.0000  0.0000  0.0000  0.0000  0.0000 </r>
        <r>  0.0008  0.0946  0.0150  0.0759  0.0000  0.0000  0.0000  0.0000  0.0000 </r>
       </set>
       <set comment="band 5">
        <r>  0.0435  0.0173  0.0337  0.0098  0.0000  0.0000  0.0000  0.0000  0.0000 </r>
        <r>  0.0435  0.0173  0.0337  0.0098  0.0000  0.0000  0.0000  0.0000  0.0000 </r>
       </set>
       <set comment="band 6">
        <r>  0.0319  0.0315  0.0186  0.0196  0.0000  0.0000  0.0000  0.0000  0.0000 </r>
        <r>  0.0319  0.0315  0.0186  0.0196  0.0000  0.0000  0.0000  0.0000  0.0000 </r>
       </set>
       <set comment="band 7">
        <r>  0.0353  0.0506  0.0246  0.0379  0.0000  0.0000  0.0000  0.0000  0.0000 </r>
        <r>  0.0353  0.0506  0.0246  0.0379  0.0000  0.0000  0.0000  0.0000  0.0000 </r>
       </set>
       <set comment="band 8">
        <r>  0.0125  0.0496  0.0180  0.0796  0.0000  0.0000  0.0000  0.0000  0.0000 </r>
        <r>  0.0125  0.0496  0.0180  0.0796  0.0000  0.0000  0.0000  0.0000  0.0000 </r>
       </set>
      </set>
      <set comment="kpoint 49">
       <set comment="band 1">
        <r>  0.2162  0.0021  0.0206  0.0083  0.0000  0.0000  0.0000  0.0000  0.0000 </r>
        <r>  0.2162  0.0021  0.0206  0.0083  0.0000  0.0000  0.0000  0.0000  0.0000 </r>
       </set>
       <set comment="band 2">
        <r>  0.1830  0.0060  0.0380  0.0151  0.0000  0.0000  0.0000  0.0000  0.0000 </r>
        <r>  0.1830  0.0060  0.0380  0.0151  0.0000  0.0000  0.0000  0.0000  0.0000 </r>
       </set>
       <set comment="band 3">
        <r>  0.0053  0.0562  0.0501  0.0498  0.0000  0.0000  0.0000  0.0000  0.0000 </r>
        <r>  0.0053  0.0562  0.0501  0.0498  0.0000  0.0000  0.0000  0.0000  0.0000 </r>
       </set>
       <set comment="band 4">
        <r>  0.0020  0.0923  0.0114  0.0826  0.0000  0.0000  0.0000  0.0000  0.0000 </r>
        <r>  0.0020  0.0923  0.0114  0.0826  0.0000  0.0000  0.0000  0.0000  0.0000 </r>
       </set>
       <set comment="band 5">
        <r>  0.0448  0.0203  0.0326  0.0060  0.0000  0.0000  0.0000  0.0000  0.0000 </r>
        <r>  0.0448  0.0203  0.0326  0.0060  0.0000  0.0000  0.0000  0.0000  0.0000 </r>
       </set>
       <set comment="band 6">
        <r>  0.0139  0.0554  0.0066  0.0193  0.0000  0.0000  0.0000  0.0000  0.0000 </r>
        <r>  0.0139  0.0554  0.0066  0.0193  0.0000  0.0000  0.0000  0.0000  0.0000 </r>
       </set>
       <set comment="band 7">
        <r>  0.0413  0.0296  0.0354  0.0465  0.0000  0.0000  0.0000  0.0000  0.0000 </r>
        <r>  0.0413  0.0296  0.0354  0.0464  0.0000  0.0000  0.0000  0.0000  0.0000 </r>
       </set>
       <set comment="band 8">
        <r>  0.0270  0.0506  0.0323  0.0350  0.0000  0.0000  0.0000  0.0000  0.0000 </r>
        <r>  0.0270  0.0506  0.0323  0.0350  0.0000  0.0000  0.0000  0.0000  0.0000 </r>
       </set>
      </set>
      <set comment="kpoint 50">
       <set comment="band 1">
        <r>  0.2159  0.0047  0.0092  0.0138  0.0000  0.0000  0.0000  0.0000  0.0000 </r>
        <r>  0.2159  0.0047  0.0092  0.0138  0.0000  0.0000  0.0000  0.0000  0.0000 </r>
       </set>
       <set comment="band 2">
        <r>  0.1793  0.0074  0.0389  0.0181  0.0000  0.0000  0.0000  0.0000  0.0000 </r>
        <r>  0.1793  0.0074  0.0389  0.0181  0.0000  0.0000  0.0000  0.0000  0.0000 </r>
       </set>
       <set comment="band 3">
        <r>  0.0053  0.0508  0.0658  0.0376  0.0000  0.0000  0.0000  0.0000  0.0000 </r>
        <r>  0.0053  0.0508  0.0658  0.0376  0.0000  0.0000  0.0000  0.0000  0.0000 </r>
       </set>
       <set comment="band 4">
        <r>  0.0027  0.0943  0.0110  0.0844  0.0000  0.0000  0.0000  0.0000  0.0000 </r>
        <r>  0.0027  0.0943  0.0110  0.0844  0.0000  0.0000  0.0000  0.0000  0.0000 </r>
       </set>
       <set comment="band 5">
        <r>  0.0457  0.0234  0.0358  0.0044  0.0000  0.0000  0.0000  0.0000  0.0000 </r>
        <r>  0.0457  0.0234  0.0358  0.0044  0.0000  0.0000  0.0000  0.0000  0.0000 </r>
       </set>
       <set comment="band 6">
        <r>  0.0128  0.0590  0.0252  0.0197  0.0000  0.0000  0.0000  0.0000  0.0000 </r>
        <r>  0.0128  0.0590  0.0252  0.0197  0.0000  0.0000  0.0000  0.0000  0.0000 </r>
       </set>
       <set comment="band 7">
        <r>  0.0425  0.0394  0.0249  0.0185  0.0000  0.0000  0.0000  0.0000  0.0000 </r>
        <r>  0.0425  0.0394  0.0249  0.0185  0.0000  0.0000  0.0000  0.0000  0.0000 </r>
       </set>
       <set comment="band 8">
        <r>  0.0181  0.0096  0.0115  0.0786  0.0000  0.0000  0.0000  0.0000  0.0000 </r>
        <r>  0.0181  0.0096  0.0115  0.0786  0.0000  0.0000  0.0000  0.0000  0.0000 </r>
       </set>
      </set>
      <set comment="kpoint 51">
       <set comment="band 1">
        <r>  0.2026  0.0002  0.0356  0.0016  0.0000  0.0000  0.0000  0.0000  0.0000 </r>
        <r>  0.2026  0.0002  0.0356  0.0016  0.0000  0.0000  0.0000  0.0000  0.0000 </r>
       </set>
       <set comment="band 2">
        <r>  0.1951  0.0000  0.0489  0.0038  0.0000  0.0000  0.0000  0.0000  0.0000 </r>
        <r>  0.1951  0.0000  0.0489  0.0038  0.0000  0.0000  0.0000  0.0000  0.0000 </r>
       </set>
       <set comment="band 3">
        <r>  0.0036  0.0807  0.0090  0.0898  0.0000  0.0000  0.0000  0.0000  0.0000 </r>
        <r>  0.0036  0.0807  0.0090  0.0898  0.0000  0.0000  0.0000  0.0000  0.0000 </r>
       </set>
       <set comment="band 4">
        <r>  0.0007  0.0926  0.0109  0.0799  0.0000  0.0000  0.0000  0.0000  0.0000 </r>
        <r>  0.0007  0.0926  0.0109  0.0799  0.0000  0.0000  0.0000  0.0000  0.0000 </r>
       </set>
       <set comment="band 5">
        <r>  0.0453  0.0150  0.0319  0.0109  0.0000  0.0000  0.0000  0.0000  0.0000 </r>
        <r>  0.0453  0.0150  0.0319  0.0109  0.0000  0.0000  0.0000  0.0000  0.0000 </r>
       </set>
       <set comment="band 6">
        <r>  0.0441  0.0141  0.0256  0.0081  0.0000  0.0000  0.0000  0.0000  0.0000 </r>
        <r>  0.0441  0.0141  0.0256  0.0081  0.0000  0.0000  0.0000  0.0000  0.0000 </r>
       </set>
       <set comment="band 7">
        <r>  0.0205  0.0679  0.0222  0.0373  0.0000  0.0000  0.0000  0.0000  0.0000 </r>
        <r>  0.0205  0.0679  0.0222  0.0373  0.0000  0.0000  0.0000  0.0000  0.0000 </r>
       </set>
       <set comment="band 8">
        <r>  0.0081  0.0982  0.0057  0.1037  0.0000  0.0000  0.0000  0.0000  0.0000 </r>
        <r>  0.0081  0.0982  0.0057  0.1037  0.0000  0.0000  0.0000  0.0000  0.0000 </r>
       </set>
      </set>
      <set comment="kpoint 52">
       <set comment="band 1">
        <r>  0.2090  0.0005  0.0329  0.0058  0.0000  0.0000  0.0000  0.0000  0.0000 </r>
        <r>  0.2090  0.0005  0.0329  0.0058  0.0000  0.0000  0.0000  0.0000  0.0000 </r>
       </set>
       <set comment="band 2">
        <r>  0.1953  0.0011  0.0415  0.0061  0.0000  0.0000  0.0000  0.0000  0.0000 </r>
        <r>  0.1953  0.0011  0.0415  0.0061  0.0000  0.0000  0.0000  0.0000  0.0000 </r>
       </set>
       <set comment="band 3">
        <r>  0.0010  0.0709  0.0279  0.0657  0.0000  0.0000  0.0000  0.0000  0.0000 </r>
        <r>  0.0010  0.0709  0.0279  0.0657  0.0000  0.0000  0.0000  0.0000  0.0000 </r>
       </set>
       <set comment="band 4">
        <r>  0.0021  0.0881  0.0098  0.0849  0.0000  0.0000  0.0000  0.0000  0.0000 </r>
        <r>  0.0021  0.0881  0.0098  0.0849  0.0000  0.0000  0.0000  0.0000  0.0000 </r>
       </set>
       <set comment="band 5">
        <r>  0.0449  0.0177  0.0294  0.0073  0.0000  0.0000  0.0000  0.0000  0.0000 </r>
        <r>  0.0449  0.0177  0.0294  0.0073  0.0000  0.0000  0.0000  0.0000  0.0000 </r>
       </set>
       <set comment="band 6">
        <r>  0.0330  0.0326  0.0190  0.0220  0.0000  0.0000  0.0000  0.0000  0.0000 </r>
        <r>  0.0330  0.0326  0.0190  0.0220  0.0000  0.0000  0.0000  0.0000  0.0000 </r>
       </set>
       <set comment="band 7">
        <r>  0.0209  0.0534  0.0324  0.0383  0.0000  0.0000  0.0000  0.0000  0.0000 </r>
        <r>  0.0209  0.0534  0.0324  0.0383  0.0000  0.0000  0.0000  0.0000  0.0000 </r>
       </set>
       <set comment="band 8">
        <r>  0.0273  0.0576  0.0276  0.0273  0.0000  0.0000  0.0000  0.0000  0.0000 </r>
        <r>  0.0273  0.0576  0.0276  0.0273  0.0000  0.0000  0.0000  0.0000  0.0000 </r>
       </set>
      </set>
      <set comment="kpoint 53">
       <set comment="band 1">
        <r>  0.2111  0.0026  0.0200  0.0033  0.0000  0.0000  0.0000  0.0000  0.0000 </r>
        <r>  0.2111  0.0026  0.0200  0.0033  0.0000  0.0000  0.0000  0.0000  0.0000 </r>
       </set>
       <set comment="band 2">
        <r>  0.1796  0.0058  0.0371  0.0263  0.0000  0.0000  0.0000  0.0000  0.0000 </r>
        <r>  0.1796  0.0058  0.0371  0.0263  0.0000  0.0000  0.0000  0.0000  0.0000 </r>
       </set>
       <set comment="band 3">
        <r>  0.0091  0.0558  0.0233  0.0810  0.0000  0.0000  0.0000  0.0000  0.0000 </r>
        <r>  0.0091  0.0558  0.0233  0.0810  0.0000  0.0000  0.0000  0.0000  0.0000 </r>
       </set>
       <set comment="band 4">
        <r>  0.0028  0.0930  0.0532  0.0355  0.0000  0.0000  0.0000  0.0000  0.0000 </r>
        <r>  0.0028  0.0930  0.0532  0.0355  0.0000  0.0000  0.0000  0.0000  0.0000 </r>
       </set>
       <set comment="band 5">
        <r>  0.0298  0.0340  0.0336  0.0272  0.0000  0.0000  0.0000  0.0000  0.0000 </r>
        <r>  0.0298  0.0340  0.0336  0.0272  0.0000  0.0000  0.0000  0.0000  0.0000 </r>
       </set>
       <set comment="band 6">
        <r>  0.0120  0.0532  0.0067  0.0019  0.0000  0.0000  0.0000  0.0000  0.0000 </r>
        <r>  0.0120  0.0532  0.0067  0.0019  0.0000  0.0000  0.0000  0.0000  0.0000 </r>
       </set>
       <set comment="band 7">
        <r>  0.0707  0.0163  0.0274  0.0522  0.0000  0.0000  0.0000  0.0000  0.0000 </r>
        <r>  0.0707  0.0163  0.0274  0.0522  0.0000  0.0000  0.0000  0.0000  0.0000 </r>
       </set>
       <set comment="band 8">
        <r>  0.0042  0.0436  0.0210  0.0766  0.0000  0.0000  0.0000  0.0000  0.0000 </r>
        <r>  0.0042  0.0436  0.0210  0.0766  0.0000  0.0000  0.0000  0.0000  0.0000 </r>
       </set>
      </set>
      <set comment="kpoint 54">
       <set comment="band 1">
        <r>  0.2151  0.0020  0.0188  0.0089  0.0000  0.0000  0.0000  0.0000  0.0000 </r>
        <r>  0.2151  0.0020  0.0188  0.0089  0.0000  0.0000  0.0000  0.0000  0.0000 </r>
       </set>
       <set comment="band 2">
        <r>  0.1819  0.0059  0.0275  0.0283  0.0000  0.0000  0.0000  0.0000  0.0000 </r>
        <r>  0.1819  0.0059  0.0275  0.0283  0.0000  0.0000  0.0000  0.0000  0.0000 </r>
       </set>
       <set comment="band 3">
        <r>  0.0103  0.0538  0.0391  0.0628  0.0000  0.0000  0.0000  0.0000  0.0000 </r>
        <r>  0.0103  0.0538  0.0391  0.0628  0.0000  0.0000  0.0000  0.0000  0.0000 </r>
       </set>
       <set comment="band 4">
        <r>  0.0014  0.0883  0.0501  0.0388  0.0000  0.0000  0.0000  0.0000  0.0000 </r>
        <r>  0.0014  0.0883  0.0501  0.0388  0.0000  0.0000  0.0000  0.0000  0.0000 </r>
       </set>
       <set comment="band 5">
        <r>  0.0164  0.0525  0.0171  0.0116  0.0000  0.0000  0.0000  0.0000  0.0000 </r>
        <r>  0.0164  0.0525  0.0171  0.0116  0.0000  0.0000  0.0000  0.0000  0.0000 </r>
       </set>
       <set comment="band 6">
        <r>  0.0442  0.0373  0.0199  0.0293  0.0000  0.0000  0.0000  0.0000  0.0000 </r>
        <r>  0.0442  0.0373  0.0199  0.0293  0.0000  0.0000  0.0000  0.0000  0.0000 </r>
       </set>
       <set comment="band 7">
        <r>  0.0402  0.0300  0.0222  0.0368  0.0000  0.0000  0.0000  0.0000  0.0000 </r>
        <r>  0.0402  0.0300  0.0222  0.0368  0.0000  0.0000  0.0000  0.0000  0.0000 </r>
       </set>
       <set comment="band 8">
        <r>  0.0254  0.0302  0.0519  0.0245  0.0000  0.0000  0.0000  0.0000  0.0000 </r>
        <r>  0.0254  0.0302  0.0519  0.0245  0.0000  0.0000  0.0000  0.0000  0.0000 </r>
       </set>
      </set>
      <set comment="kpoint 55">
       <set comment="band 1">
        <r>  0.2083  0.0006  0.0285  0.0075  0.0000  0.0000  0.0000  0.0000  0.0000 </r>
        <r>  0.2083  0.0006  0.0285  0.0075  0.0000  0.0000  0.0000  0.0000  0.0000 </r>
       </set>
       <set comment="band 2">
        <r>  0.1997  0.0004  0.0349  0.0155  0.0000  0.0000  0.0000  0.0000  0.0000 </r>
        <r>  0.1997  0.0004  0.0349  0.0155  0.0000  0.0000  0.0000  0.0000  0.0000 </r>
       </set>
       <set comment="band 3">
        <r>  0.0035  0.0679  0.0252  0.0702  0.0000  0.0000  0.0000  0.0000  0.0000 </r>
        <r>  0.0035  0.0679  0.0252  0.0702  0.0000  0.0000  0.0000  0.0000  0.0000 </r>
       </set>
       <set comment="band 4">
        <r>  0.0000  0.0808  0.0342  0.0553  0.0000  0.0000  0.0000  0.0000  0.0000 </r>
        <r>  0.0000  0.0808  0.0342  0.0553  0.0000  0.0000  0.0000  0.0000  0.0000 </r>
       </set>
       <set comment="band 5">
        <r>  0.0317  0.0377  0.0230  0.0206  0.0000  0.0000  0.0000  0.0000  0.0000 </r>
        <r>  0.0317  0.0377  0.0230  0.0206  0.0000  0.0000  0.0000  0.0000  0.0000 </r>
       </set>
       <set comment="band 6">
        <r>  0.0292  0.0408  0.0157  0.0137  0.0000  0.0000  0.0000  0.0000  0.0000 </r>
        <r>  0.0292  0.0408  0.0157  0.0137  0.0000  0.0000  0.0000  0.0000  0.0000 </r>
       </set>
       <set comment="band 7">
        <r>  0.0403  0.0385  0.0305  0.0346  0.0000  0.0000  0.0000  0.0000  0.0000 </r>
        <r>  0.0403  0.0385  0.0305  0.0346  0.0000  0.0000  0.0000  0.0000  0.0000 </r>
       </set>
       <set comment="band 8">
        <r>  0.0259  0.0437  0.0391  0.0277  0.0000  0.0000  0.0000  0.0000  0.0000 </r>
        <r>  0.0259  0.0437  0.0391  0.0277  0.0000  0.0000  0.0000  0.0000  0.0000 </r>
       </set>
      </set>
      <set comment="kpoint 56">
       <set comment="band 1">
        <r>  0.2127  0.0006  0.0190  0.0170  0.0000  0.0000  0.0000  0.0000  0.0000 </r>
        <r>  0.2127  0.0006  0.0190  0.0170  0.0000  0.0000  0.0000  0.0000  0.0000 </r>
       </set>
       <set comment="band 2">
        <r>  0.1989  0.0009  0.0309  0.0178  0.0000  0.0000  0.0000  0.0000  0.0000 </r>
        <r>  0.1989  0.0009  0.0309  0.0178  0.0000  0.0000  0.0000  0.0000  0.0000 </r>
       </set>
       <set comment="band 3">
        <r>  0.0003  0.0649  0.0496  0.0449  0.0000  0.0000  0.0000  0.0000  0.0000 </r>
        <r>  0.0003  0.0649  0.0496  0.0449  0.0000  0.0000  0.0000  0.0000  0.0000 </r>
       </set>
       <set comment="band 4">
        <r>  0.0014  0.0789  0.0300  0.0609  0.0000  0.0000  0.0000  0.0000  0.0000 </r>
        <r>  0.0014  0.0789  0.0300  0.0609  0.0000  0.0000  0.0000  0.0000  0.0000 </r>
       </set>
       <set comment="band 5">
        <r>  0.0266  0.0479  0.0183  0.0123  0.0000  0.0000  0.0000  0.0000  0.0000 </r>
        <r>  0.0266  0.0479  0.0183  0.0123  0.0000  0.0000  0.0000  0.0000  0.0000 </r>
       </set>
       <set comment="band 6">
        <r>  0.0012  0.0805  0.0001  0.0019  0.0000  0.0000  0.0000  0.0000  0.0000 </r>
        <r>  0.0012  0.0805  0.0001  0.0019  0.0000  0.0000  0.0000  0.0000  0.0000 </r>
       </set>
       <set comment="band 7">
        <r>  0.0447  0.0300  0.0349  0.0279  0.0000  0.0000  0.0000  0.0000  0.0000 </r>
        <r>  0.0447  0.0300  0.0349  0.0279  0.0000  0.0000  0.0000  0.0000  0.0000 </r>
       </set>
       <set comment="band 8">
        <r>  0.0550  0.0023  0.0512  0.0585  0.0000  0.0000  0.0000  0.0000  0.0000 </r>
        <r>  0.0550  0.0023  0.0512  0.0585  0.0000  0.0000  0.0000  0.0000  0.0000 </r>
       </set>
      </set>
     </set>
    </set>
   </array>
  </projected>
 </calculation>
 <structure name="finalpos" >
  <crystal>
   <varray name="basis" >
    <v>       0.00000000       2.73434617       2.73434617 </v>
    <v>       2.73434617       0.00000000       2.73434617 </v>
    <v>       2.73434617       2.73434617       0.00000000 </v>
   </varray>
   <i name="volume">     40.88749317 </i>
   <varray name="rec_basis" >
    <v>      -0.18285907       0.18285907       0.18285907 </v>
    <v>       0.18285907      -0.18285907       0.18285907 </v>
    <v>       0.18285907       0.18285907      -0.18285907 </v>
   </varray>
  </crystal>
  <varray name="positions" >
   <v>       0.25000000       0.25000000       0.25000000 </v>
   <v>       0.00000000       0.00000000       0.00000000 </v>
  </varray>
 </structure>
</modeling>
